! AWR Design Environment (12464) Thu Sep 26 10:28:50 2024
! Document = 'Ideal_4port_xformer'
! nPorts: 4, nXvals: 10036

# GHz S DB R 50
!Freq DBS11 AngS11 DBS12 AngS12 DBS13 AngS13 DBS14 AngS14 
!	DBS21 AngS21 DBS22 AngS22 DBS23 AngS23 DBS24 AngS24 
!	DBS31 AngS31 DBS32 AngS32 DBS33 AngS33 DBS34 AngS34 
!	DBS41 AngS41 DBS42 AngS42 DBS43 AngS43 DBS44 AngS44 
1e-06 -6.0197314 0 -6.0214685 0 -6.0214685 0 -6.0214686 180 
	-6.0214686 0 -6.0197314 0 -6.0214686 180 -6.0214685 -0 
	-6.0214685 0 -6.0214685 180 -6.0197314 0 -6.0214686 -0 
	-6.0214686 180 -6.0214685 -0 -6.0214686 -0 -6.0197314 0 
2e-06 -6.0197314 0 -6.0214685 0 -6.0214685 0 -6.0214686 180 
	-6.0214686 0 -6.0197314 0 -6.0214686 180 -6.0214685 -0 
	-6.0214685 0 -6.0214685 180 -6.0197314 0 -6.0214686 -0 
	-6.0214686 180 -6.0214685 -0 -6.0214686 -0 -6.0197314 0 
3e-06 -6.0197314 0 -6.0214685 0 -6.0214685 0 -6.0214686 180 
	-6.0214686 0 -6.0197314 0 -6.0214686 180 -6.0214685 -0 
	-6.0214685 0 -6.0214685 180 -6.0197314 0 -6.0214686 -0 
	-6.0214686 180 -6.0214685 -0 -6.0214686 -0 -6.0197314 0 
4e-06 -6.0197314 0 -6.0214685 0 -6.0214685 0 -6.0214686 180 
	-6.0214686 0 -6.0197314 0 -6.0214686 180 -6.0214685 -0 
	-6.0214685 0 -6.0214685 180 -6.0197314 0 -6.0214686 -0 
	-6.0214686 180 -6.0214685 -0 -6.0214686 -0 -6.0197314 0 
5e-06 -6.0197314 0 -6.0214685 0 -6.0214685 0 -6.0214686 180 
	-6.0214686 0 -6.0197314 0 -6.0214686 180 -6.0214685 -0 
	-6.0214685 0 -6.0214685 180 -6.0197314 0 -6.0214686 -0 
	-6.0214686 180 -6.0214685 -0 -6.0214686 -0 -6.0197314 0 
6e-06 -6.0197314 0 -6.0214685 0 -6.0214685 0 -6.0214686 180 
	-6.0214686 0 -6.0197314 0 -6.0214686 180 -6.0214685 -0 
	-6.0214685 0 -6.0214685 180 -6.0197314 0 -6.0214686 -0 
	-6.0214686 180 -6.0214685 -0 -6.0214686 -0 -6.0197314 0 
7e-06 -6.0197314 0 -6.0214685 0 -6.0214685 0 -6.0214686 180 
	-6.0214686 0 -6.0197314 0 -6.0214686 180 -6.0214685 -0 
	-6.0214685 0 -6.0214685 180 -6.0197314 0 -6.0214686 -0 
	-6.0214686 180 -6.0214685 -0 -6.0214686 -0 -6.0197314 0 
8e-06 -6.0197314 0 -6.0214685 0 -6.0214685 0 -6.0214686 180 
	-6.0214686 0 -6.0197314 0 -6.0214686 180 -6.0214685 -0 
	-6.0214685 0 -6.0214685 180 -6.0197314 0 -6.0214686 -0 
	-6.0214686 180 -6.0214685 -0 -6.0214686 -0 -6.0197314 0 
9e-06 -6.0197314 0 -6.0214685 0 -6.0214685 0 -6.0214686 180 
	-6.0214686 0 -6.0197314 0 -6.0214686 180 -6.0214685 -0 
	-6.0214685 0 -6.0214685 180 -6.0197314 0 -6.0214686 -0 
	-6.0214686 180 -6.0214685 -0 -6.0214686 -0 -6.0197314 0 
1e-05 -6.0197314 0 -6.0214685 0 -6.0214685 0 -6.0214686 180 
	-6.0214686 0 -6.0197314 0 -6.0214686 180 -6.0214685 -0 
	-6.0214685 0 -6.0214685 180 -6.0197314 0 -6.0214686 -0 
	-6.0214686 180 -6.0214685 -0 -6.0214686 -0 -6.0197314 0 
2e-05 -6.0197314 0 -6.0214685 0 -6.0214685 0 -6.0214686 180 
	-6.0214686 0 -6.0197314 0 -6.0214686 180 -6.0214685 -0 
	-6.0214685 0 -6.0214685 180 -6.0197314 0 -6.0214686 -0 
	-6.0214686 180 -6.0214685 -0 -6.0214686 -0 -6.0197314 0 
3e-05 -6.0197314 0 -6.0214685 0 -6.0214685 0 -6.0214686 180 
	-6.0214686 0 -6.0197314 0 -6.0214686 180 -6.0214685 -0 
	-6.0214685 0 -6.0214685 180 -6.0197314 0 -6.0214686 -0 
	-6.0214686 180 -6.0214685 -0 -6.0214686 -0 -6.0197314 0 
4e-05 -6.0197314 0 -6.0214685 0 -6.0214685 0 -6.0214686 180 
	-6.0214686 0 -6.0197314 0 -6.0214686 180 -6.0214685 -0 
	-6.0214685 0 -6.0214685 180 -6.0197314 0 -6.0214686 -0 
	-6.0214686 180 -6.0214685 -0 -6.0214686 -0 -6.0197314 0 
5e-05 -6.0197314 0 -6.0214685 0 -6.0214685 0 -6.0214686 180 
	-6.0214686 0 -6.0197314 0 -6.0214686 180 -6.0214685 -0 
	-6.0214685 0 -6.0214685 180 -6.0197314 0 -6.0214686 -0 
	-6.0214686 180 -6.0214685 -0 -6.0214686 -0 -6.0197314 0 
6e-05 -6.0197314 0 -6.0214685 0 -6.0214685 0 -6.0214686 180 
	-6.0214686 0 -6.0197314 0 -6.0214686 180 -6.0214685 -0 
	-6.0214685 0 -6.0214685 180 -6.0197314 0 -6.0214686 -0 
	-6.0214686 180 -6.0214685 -0 -6.0214686 -0 -6.0197314 0 
7e-05 -6.0197314 0 -6.0214685 0 -6.0214685 0 -6.0214686 180 
	-6.0214686 0 -6.0197314 0 -6.0214686 180 -6.0214685 -0 
	-6.0214685 0 -6.0214685 180 -6.0197314 0 -6.0214686 -0 
	-6.0214686 180 -6.0214685 -0 -6.0214686 -0 -6.0197314 0 
8e-05 -6.0197314 0 -6.0214685 0 -6.0214685 0 -6.0214686 180 
	-6.0214686 0 -6.0197314 0 -6.0214686 180 -6.0214685 -0 
	-6.0214685 0 -6.0214685 180 -6.0197314 0 -6.0214686 -0 
	-6.0214686 180 -6.0214685 -0 -6.0214686 -0 -6.0197314 0 
9e-05 -6.0197314 0 -6.0214685 0 -6.0214685 0 -6.0214686 180 
	-6.0214686 0 -6.0197314 0 -6.0214686 180 -6.0214685 -0 
	-6.0214685 0 -6.0214685 180 -6.0197314 0 -6.0214686 -0 
	-6.0214686 180 -6.0214685 -0 -6.0214686 -0 -6.0197314 0 
0.0001 -6.0197314 0 -6.0214685 0 -6.0214685 0 -6.0214686 180 
	-6.0214686 0 -6.0197314 0 -6.0214686 180 -6.0214685 -0 
	-6.0214685 0 -6.0214685 180 -6.0197314 0 -6.0214686 -0 
	-6.0214686 180 -6.0214685 -0 -6.0214686 -0 -6.0197314 0 
0.0002 -6.0197314 0 -6.0214685 0 -6.0214685 0 -6.0214686 180 
	-6.0214686 0 -6.0197314 0 -6.0214686 180 -6.0214685 -0 
	-6.0214685 0 -6.0214685 180 -6.0197314 0 -6.0214686 -0 
	-6.0214686 180 -6.0214685 -0 -6.0214686 -0 -6.0197314 0 
0.0003 -6.0197314 0 -6.0214685 0 -6.0214685 0 -6.0214686 180 
	-6.0214686 0 -6.0197314 0 -6.0214686 180 -6.0214685 -0 
	-6.0214685 0 -6.0214685 180 -6.0197314 0 -6.0214686 -0 
	-6.0214686 180 -6.0214685 -0 -6.0214686 -0 -6.0197314 0 
0.0004 -6.0197314 0 -6.0214685 0 -6.0214685 0 -6.0214686 180 
	-6.0214686 0 -6.0197314 0 -6.0214686 180 -6.0214685 -0 
	-6.0214685 0 -6.0214685 180 -6.0197314 0 -6.0214686 -0 
	-6.0214686 180 -6.0214685 -0 -6.0214686 -0 -6.0197314 0 
0.0005 -6.0197314 0 -6.0214685 0 -6.0214685 0 -6.0214686 180 
	-6.0214686 0 -6.0197314 0 -6.0214686 180 -6.0214685 -0 
	-6.0214685 0 -6.0214685 180 -6.0197314 0 -6.0214686 -0 
	-6.0214686 180 -6.0214685 -0 -6.0214686 -0 -6.0197314 0 
0.0006 -6.0197314 0 -6.0214685 0 -6.0214685 0 -6.0214686 180 
	-6.0214686 0 -6.0197314 0 -6.0214686 180 -6.0214685 -0 
	-6.0214685 0 -6.0214685 180 -6.0197314 0 -6.0214686 -0 
	-6.0214686 180 -6.0214685 -0 -6.0214686 -0 -6.0197314 0 
0.0007 -6.0197314 0 -6.0214685 0 -6.0214685 0 -6.0214686 180 
	-6.0214686 0 -6.0197314 0 -6.0214686 180 -6.0214685 -0 
	-6.0214685 0 -6.0214685 180 -6.0197314 0 -6.0214686 -0 
	-6.0214686 180 -6.0214685 -0 -6.0214686 -0 -6.0197314 0 
0.0008 -6.0197314 0 -6.0214685 0 -6.0214685 0 -6.0214686 180 
	-6.0214686 0 -6.0197314 0 -6.0214686 180 -6.0214685 -0 
	-6.0214685 0 -6.0214685 180 -6.0197314 0 -6.0214686 -0 
	-6.0214686 180 -6.0214685 -0 -6.0214686 -0 -6.0197314 0 
0.0009 -6.0197314 0 -6.0214685 0 -6.0214685 0 -6.0214686 180 
	-6.0214686 0 -6.0197314 0 -6.0214686 180 -6.0214685 -0 
	-6.0214685 0 -6.0214685 180 -6.0197314 0 -6.0214686 -0 
	-6.0214686 180 -6.0214685 -0 -6.0214686 -0 -6.0197314 0 
0.001 -6.0197314 0 -6.0214685 0 -6.0214685 0 -6.0214686 180 
	-6.0214686 0 -6.0197314 0 -6.0214686 180 -6.0214685 -0 
	-6.0214685 0 -6.0214685 180 -6.0197314 0 -6.0214686 -0 
	-6.0214686 180 -6.0214685 -0 -6.0214686 -0 -6.0197314 0 
0.002 -6.0197314 0 -6.0214685 0 -6.0214685 0 -6.0214686 180 
	-6.0214686 0 -6.0197314 0 -6.0214686 180 -6.0214685 -0 
	-6.0214685 0 -6.0214685 180 -6.0197314 0 -6.0214686 -0 
	-6.0214686 180 -6.0214685 -0 -6.0214686 -0 -6.0197314 0 
0.003 -6.0197314 0 -6.0214685 0 -6.0214685 0 -6.0214686 180 
	-6.0214686 0 -6.0197314 0 -6.0214686 180 -6.0214685 -0 
	-6.0214685 0 -6.0214685 180 -6.0197314 0 -6.0214686 -0 
	-6.0214686 180 -6.0214685 -0 -6.0214686 -0 -6.0197314 0 
0.004 -6.0197314 0 -6.0214685 0 -6.0214685 0 -6.0214686 180 
	-6.0214686 0 -6.0197314 0 -6.0214686 180 -6.0214685 -0 
	-6.0214685 0 -6.0214685 180 -6.0197314 0 -6.0214686 -0 
	-6.0214686 180 -6.0214685 -0 -6.0214686 -0 -6.0197314 0 
0.005 -6.0197314 0 -6.0214685 0 -6.0214685 0 -6.0214686 180 
	-6.0214686 0 -6.0197314 0 -6.0214686 180 -6.0214685 -0 
	-6.0214685 0 -6.0214685 180 -6.0197314 0 -6.0214686 -0 
	-6.0214686 180 -6.0214685 -0 -6.0214686 -0 -6.0197314 0 
0.006 -6.0197314 0 -6.0214685 0 -6.0214685 0 -6.0214686 180 
	-6.0214686 0 -6.0197314 0 -6.0214686 180 -6.0214685 -0 
	-6.0214685 0 -6.0214685 180 -6.0197314 0 -6.0214686 -0 
	-6.0214686 180 -6.0214685 -0 -6.0214686 -0 -6.0197314 0 
0.007 -6.0197314 0 -6.0214685 0 -6.0214685 0 -6.0214686 180 
	-6.0214686 0 -6.0197314 0 -6.0214686 180 -6.0214685 -0 
	-6.0214685 0 -6.0214685 180 -6.0197314 0 -6.0214686 -0 
	-6.0214686 180 -6.0214685 -0 -6.0214686 -0 -6.0197314 0 
0.008 -6.0197314 0 -6.0214685 0 -6.0214685 0 -6.0214686 180 
	-6.0214686 0 -6.0197314 0 -6.0214686 180 -6.0214685 -0 
	-6.0214685 0 -6.0214685 180 -6.0197314 0 -6.0214686 -0 
	-6.0214686 180 -6.0214685 -0 -6.0214686 -0 -6.0197314 0 
0.009 -6.0197314 0 -6.0214685 0 -6.0214685 0 -6.0214686 180 
	-6.0214686 0 -6.0197314 0 -6.0214686 180 -6.0214685 -0 
	-6.0214685 0 -6.0214685 180 -6.0197314 0 -6.0214686 -0 
	-6.0214686 180 -6.0214685 -0 -6.0214686 -0 -6.0197314 0 
0.01 -6.0197314 0 -6.0214685 0 -6.0214685 0 -6.0214686 180 
	-6.0214686 0 -6.0197314 0 -6.0214686 180 -6.0214685 -0 
	-6.0214685 0 -6.0214685 180 -6.0197314 0 -6.0214686 -0 
	-6.0214686 180 -6.0214685 -0 -6.0214686 -0 -6.0197314 0 
0.02 -6.0197314 0 -6.0214685 0 -6.0214685 0 -6.0214686 180 
	-6.0214686 0 -6.0197314 0 -6.0214686 180 -6.0214685 -0 
	-6.0214685 0 -6.0214685 180 -6.0197314 0 -6.0214686 -0 
	-6.0214686 180 -6.0214685 -0 -6.0214686 -0 -6.0197314 0 
0.03 -6.0197314 0 -6.0214685 0 -6.0214685 0 -6.0214686 180 
	-6.0214686 0 -6.0197314 0 -6.0214686 180 -6.0214685 -0 
	-6.0214685 0 -6.0214685 180 -6.0197314 0 -6.0214686 -0 
	-6.0214686 180 -6.0214685 -0 -6.0214686 -0 -6.0197314 0 
0.04 -6.0197314 0 -6.0214685 0 -6.0214685 0 -6.0214686 180 
	-6.0214686 0 -6.0197314 0 -6.0214686 180 -6.0214685 -0 
	-6.0214685 0 -6.0214685 180 -6.0197314 0 -6.0214686 -0 
	-6.0214686 180 -6.0214685 -0 -6.0214686 -0 -6.0197314 0 
0.05 -6.0197314 0 -6.0214685 0 -6.0214685 0 -6.0214686 180 
	-6.0214686 0 -6.0197314 0 -6.0214686 180 -6.0214685 -0 
	-6.0214685 0 -6.0214685 180 -6.0197314 0 -6.0214686 -0 
	-6.0214686 180 -6.0214685 -0 -6.0214686 -0 -6.0197314 0 
0.06 -6.0197314 0 -6.0214685 0 -6.0214685 0 -6.0214686 180 
	-6.0214686 0 -6.0197314 0 -6.0214686 180 -6.0214685 -0 
	-6.0214685 0 -6.0214685 180 -6.0197314 0 -6.0214686 -0 
	-6.0214686 180 -6.0214685 -0 -6.0214686 -0 -6.0197314 0 
0.07 -6.0197314 0 -6.0214685 0 -6.0214685 0 -6.0214686 180 
	-6.0214686 0 -6.0197314 0 -6.0214686 180 -6.0214685 -0 
	-6.0214685 0 -6.0214685 180 -6.0197314 0 -6.0214686 -0 
	-6.0214686 180 -6.0214685 -0 -6.0214686 -0 -6.0197314 0 
0.08 -6.0197314 0 -6.0214685 0 -6.0214685 0 -6.0214686 180 
	-6.0214686 0 -6.0197314 0 -6.0214686 180 -6.0214685 -0 
	-6.0214685 0 -6.0214685 180 -6.0197314 0 -6.0214686 -0 
	-6.0214686 180 -6.0214685 -0 -6.0214686 -0 -6.0197314 0 
0.09 -6.0197314 0 -6.0214685 0 -6.0214685 0 -6.0214686 180 
	-6.0214686 0 -6.0197314 0 -6.0214686 180 -6.0214685 -0 
	-6.0214685 0 -6.0214685 180 -6.0197314 0 -6.0214686 -0 
	-6.0214686 180 -6.0214685 -0 -6.0214686 -0 -6.0197314 0 
0.1 -6.0197314 0 -6.0214685 0 -6.0214685 0 -6.0214686 180 
	-6.0214686 0 -6.0197314 0 -6.0214686 180 -6.0214685 -0 
	-6.0214685 0 -6.0214685 180 -6.0197314 0 -6.0214686 -0 
	-6.0214686 180 -6.0214685 -0 -6.0214686 -0 -6.0197314 0 
0.11 -6.0197314 0 -6.0214685 0 -6.0214685 0 -6.0214686 180 
	-6.0214686 0 -6.0197314 0 -6.0214686 180 -6.0214685 -0 
	-6.0214685 0 -6.0214685 180 -6.0197314 0 -6.0214686 -0 
	-6.0214686 180 -6.0214685 -0 -6.0214686 -0 -6.0197314 0 
0.12 -6.0197314 0 -6.0214685 0 -6.0214685 0 -6.0214686 180 
	-6.0214686 0 -6.0197314 0 -6.0214686 180 -6.0214685 -0 
	-6.0214685 0 -6.0214685 180 -6.0197314 0 -6.0214686 -0 
	-6.0214686 180 -6.0214685 -0 -6.0214686 -0 -6.0197314 0 
0.13 -6.0197314 0 -6.0214685 0 -6.0214685 0 -6.0214686 180 
	-6.0214686 0 -6.0197314 0 -6.0214686 180 -6.0214685 -0 
	-6.0214685 0 -6.0214685 180 -6.0197314 0 -6.0214686 -0 
	-6.0214686 180 -6.0214685 -0 -6.0214686 -0 -6.0197314 0 
0.14 -6.0197314 0 -6.0214685 0 -6.0214685 0 -6.0214686 180 
	-6.0214686 0 -6.0197314 0 -6.0214686 180 -6.0214685 -0 
	-6.0214685 0 -6.0214685 180 -6.0197314 0 -6.0214686 -0 
	-6.0214686 180 -6.0214685 -0 -6.0214686 -0 -6.0197314 0 
0.15 -6.0197314 0 -6.0214685 0 -6.0214685 0 -6.0214686 180 
	-6.0214686 0 -6.0197314 0 -6.0214686 180 -6.0214685 -0 
	-6.0214685 0 -6.0214685 180 -6.0197314 0 -6.0214686 -0 
	-6.0214686 180 -6.0214685 -0 -6.0214686 -0 -6.0197314 0 
0.16 -6.0197314 0 -6.0214685 0 -6.0214685 0 -6.0214686 180 
	-6.0214686 0 -6.0197314 0 -6.0214686 180 -6.0214685 -0 
	-6.0214685 0 -6.0214685 180 -6.0197314 0 -6.0214686 -0 
	-6.0214686 180 -6.0214685 -0 -6.0214686 -0 -6.0197314 0 
0.17 -6.0197314 0 -6.0214685 0 -6.0214685 0 -6.0214686 180 
	-6.0214686 0 -6.0197314 0 -6.0214686 180 -6.0214685 -0 
	-6.0214685 0 -6.0214685 180 -6.0197314 0 -6.0214686 -0 
	-6.0214686 180 -6.0214685 -0 -6.0214686 -0 -6.0197314 0 
0.18 -6.0197314 0 -6.0214685 0 -6.0214685 0 -6.0214686 180 
	-6.0214686 0 -6.0197314 0 -6.0214686 180 -6.0214685 -0 
	-6.0214685 0 -6.0214685 180 -6.0197314 0 -6.0214686 -0 
	-6.0214686 180 -6.0214685 -0 -6.0214686 -0 -6.0197314 0 
0.19 -6.0197314 0 -6.0214685 0 -6.0214685 0 -6.0214686 180 
	-6.0214686 0 -6.0197314 0 -6.0214686 180 -6.0214685 -0 
	-6.0214685 0 -6.0214685 180 -6.0197314 0 -6.0214686 -0 
	-6.0214686 180 -6.0214685 -0 -6.0214686 -0 -6.0197314 0 
0.2 -6.0197314 0 -6.0214685 0 -6.0214685 0 -6.0214686 180 
	-6.0214686 0 -6.0197314 0 -6.0214686 180 -6.0214685 -0 
	-6.0214685 0 -6.0214685 180 -6.0197314 0 -6.0214686 -0 
	-6.0214686 180 -6.0214685 -0 -6.0214686 -0 -6.0197314 0 
0.21 -6.0197314 0 -6.0214685 0 -6.0214685 0 -6.0214686 180 
	-6.0214686 0 -6.0197314 0 -6.0214686 180 -6.0214685 -0 
	-6.0214685 0 -6.0214685 180 -6.0197314 0 -6.0214686 -0 
	-6.0214686 180 -6.0214685 -0 -6.0214686 -0 -6.0197314 0 
0.22 -6.0197314 0 -6.0214685 0 -6.0214685 0 -6.0214686 180 
	-6.0214686 0 -6.0197314 0 -6.0214686 180 -6.0214685 -0 
	-6.0214685 0 -6.0214685 180 -6.0197314 0 -6.0214686 -0 
	-6.0214686 180 -6.0214685 -0 -6.0214686 -0 -6.0197314 0 
0.23 -6.0197314 0 -6.0214685 0 -6.0214685 0 -6.0214686 180 
	-6.0214686 0 -6.0197314 0 -6.0214686 180 -6.0214685 -0 
	-6.0214685 0 -6.0214685 180 -6.0197314 0 -6.0214686 -0 
	-6.0214686 180 -6.0214685 -0 -6.0214686 -0 -6.0197314 0 
0.24 -6.0197314 0 -6.0214685 0 -6.0214685 0 -6.0214686 180 
	-6.0214686 0 -6.0197314 0 -6.0214686 180 -6.0214685 -0 
	-6.0214685 0 -6.0214685 180 -6.0197314 0 -6.0214686 -0 
	-6.0214686 180 -6.0214685 -0 -6.0214686 -0 -6.0197314 0 
0.25 -6.0197314 0 -6.0214685 0 -6.0214685 0 -6.0214686 180 
	-6.0214686 0 -6.0197314 0 -6.0214686 180 -6.0214685 -0 
	-6.0214685 0 -6.0214685 180 -6.0197314 0 -6.0214686 -0 
	-6.0214686 180 -6.0214685 -0 -6.0214686 -0 -6.0197314 0 
0.26 -6.0197314 0 -6.0214685 0 -6.0214685 0 -6.0214686 180 
	-6.0214686 0 -6.0197314 0 -6.0214686 180 -6.0214685 -0 
	-6.0214685 0 -6.0214685 180 -6.0197314 0 -6.0214686 -0 
	-6.0214686 180 -6.0214685 -0 -6.0214686 -0 -6.0197314 0 
0.27 -6.0197314 0 -6.0214685 0 -6.0214685 0 -6.0214686 180 
	-6.0214686 0 -6.0197314 0 -6.0214686 180 -6.0214685 -0 
	-6.0214685 0 -6.0214685 180 -6.0197314 0 -6.0214686 -0 
	-6.0214686 180 -6.0214685 -0 -6.0214686 -0 -6.0197314 0 
0.28 -6.0197314 0 -6.0214685 0 -6.0214685 0 -6.0214686 180 
	-6.0214686 0 -6.0197314 0 -6.0214686 180 -6.0214685 -0 
	-6.0214685 0 -6.0214685 180 -6.0197314 0 -6.0214686 -0 
	-6.0214686 180 -6.0214685 -0 -6.0214686 -0 -6.0197314 0 
0.29 -6.0197314 0 -6.0214685 0 -6.0214685 0 -6.0214686 180 
	-6.0214686 0 -6.0197314 0 -6.0214686 180 -6.0214685 -0 
	-6.0214685 0 -6.0214685 180 -6.0197314 0 -6.0214686 -0 
	-6.0214686 180 -6.0214685 -0 -6.0214686 -0 -6.0197314 0 
0.3 -6.0197314 0 -6.0214685 0 -6.0214685 0 -6.0214686 180 
	-6.0214686 0 -6.0197314 0 -6.0214686 180 -6.0214685 -0 
	-6.0214685 0 -6.0214685 180 -6.0197314 0 -6.0214686 -0 
	-6.0214686 180 -6.0214685 -0 -6.0214686 -0 -6.0197314 0 
0.31 -6.0197314 0 -6.0214685 0 -6.0214685 0 -6.0214686 180 
	-6.0214686 0 -6.0197314 0 -6.0214686 180 -6.0214685 -0 
	-6.0214685 0 -6.0214685 180 -6.0197314 0 -6.0214686 -0 
	-6.0214686 180 -6.0214685 -0 -6.0214686 -0 -6.0197314 0 
0.32 -6.0197314 0 -6.0214685 0 -6.0214685 0 -6.0214686 180 
	-6.0214686 0 -6.0197314 0 -6.0214686 180 -6.0214685 -0 
	-6.0214685 0 -6.0214685 180 -6.0197314 0 -6.0214686 -0 
	-6.0214686 180 -6.0214685 -0 -6.0214686 -0 -6.0197314 0 
0.33 -6.0197314 0 -6.0214685 0 -6.0214685 0 -6.0214686 180 
	-6.0214686 0 -6.0197314 0 -6.0214686 180 -6.0214685 -0 
	-6.0214685 0 -6.0214685 180 -6.0197314 0 -6.0214686 -0 
	-6.0214686 180 -6.0214685 -0 -6.0214686 -0 -6.0197314 0 
0.34 -6.0197314 0 -6.0214685 0 -6.0214685 0 -6.0214686 180 
	-6.0214686 0 -6.0197314 0 -6.0214686 180 -6.0214685 -0 
	-6.0214685 0 -6.0214685 180 -6.0197314 0 -6.0214686 -0 
	-6.0214686 180 -6.0214685 -0 -6.0214686 -0 -6.0197314 0 
0.35 -6.0197314 0 -6.0214685 0 -6.0214685 0 -6.0214686 180 
	-6.0214686 0 -6.0197314 0 -6.0214686 180 -6.0214685 -0 
	-6.0214685 0 -6.0214685 180 -6.0197314 0 -6.0214686 -0 
	-6.0214686 180 -6.0214685 -0 -6.0214686 -0 -6.0197314 0 
0.36 -6.0197314 0 -6.0214685 0 -6.0214685 0 -6.0214686 180 
	-6.0214686 0 -6.0197314 0 -6.0214686 180 -6.0214685 -0 
	-6.0214685 0 -6.0214685 180 -6.0197314 0 -6.0214686 -0 
	-6.0214686 180 -6.0214685 -0 -6.0214686 -0 -6.0197314 0 
0.37 -6.0197314 0 -6.0214685 0 -6.0214685 0 -6.0214686 180 
	-6.0214686 0 -6.0197314 0 -6.0214686 180 -6.0214685 -0 
	-6.0214685 0 -6.0214685 180 -6.0197314 0 -6.0214686 -0 
	-6.0214686 180 -6.0214685 -0 -6.0214686 -0 -6.0197314 0 
0.38 -6.0197314 0 -6.0214685 0 -6.0214685 0 -6.0214686 180 
	-6.0214686 0 -6.0197314 0 -6.0214686 180 -6.0214685 -0 
	-6.0214685 0 -6.0214685 180 -6.0197314 0 -6.0214686 -0 
	-6.0214686 180 -6.0214685 -0 -6.0214686 -0 -6.0197314 0 
0.39 -6.0197314 0 -6.0214685 0 -6.0214685 0 -6.0214686 180 
	-6.0214686 0 -6.0197314 0 -6.0214686 180 -6.0214685 -0 
	-6.0214685 0 -6.0214685 180 -6.0197314 0 -6.0214686 -0 
	-6.0214686 180 -6.0214685 -0 -6.0214686 -0 -6.0197314 0 
0.4 -6.0197314 0 -6.0214685 0 -6.0214685 0 -6.0214686 180 
	-6.0214686 0 -6.0197314 0 -6.0214686 180 -6.0214685 -0 
	-6.0214685 0 -6.0214685 180 -6.0197314 0 -6.0214686 -0 
	-6.0214686 180 -6.0214685 -0 -6.0214686 -0 -6.0197314 0 
0.41 -6.0197314 0 -6.0214685 0 -6.0214685 0 -6.0214686 180 
	-6.0214686 0 -6.0197314 0 -6.0214686 180 -6.0214685 -0 
	-6.0214685 0 -6.0214685 180 -6.0197314 0 -6.0214686 -0 
	-6.0214686 180 -6.0214685 -0 -6.0214686 -0 -6.0197314 0 
0.42 -6.0197314 0 -6.0214685 0 -6.0214685 0 -6.0214686 180 
	-6.0214686 0 -6.0197314 0 -6.0214686 180 -6.0214685 -0 
	-6.0214685 0 -6.0214685 180 -6.0197314 0 -6.0214686 -0 
	-6.0214686 180 -6.0214685 -0 -6.0214686 -0 -6.0197314 0 
0.43 -6.0197314 0 -6.0214685 0 -6.0214685 0 -6.0214686 180 
	-6.0214686 0 -6.0197314 0 -6.0214686 180 -6.0214685 -0 
	-6.0214685 0 -6.0214685 180 -6.0197314 0 -6.0214686 -0 
	-6.0214686 180 -6.0214685 -0 -6.0214686 -0 -6.0197314 0 
0.44 -6.0197314 0 -6.0214685 0 -6.0214685 0 -6.0214686 180 
	-6.0214686 0 -6.0197314 0 -6.0214686 180 -6.0214685 -0 
	-6.0214685 0 -6.0214685 180 -6.0197314 0 -6.0214686 -0 
	-6.0214686 180 -6.0214685 -0 -6.0214686 -0 -6.0197314 0 
0.45 -6.0197314 0 -6.0214685 0 -6.0214685 0 -6.0214686 180 
	-6.0214686 0 -6.0197314 0 -6.0214686 180 -6.0214685 -0 
	-6.0214685 0 -6.0214685 180 -6.0197314 0 -6.0214686 -0 
	-6.0214686 180 -6.0214685 -0 -6.0214686 -0 -6.0197314 0 
0.46 -6.0197314 0 -6.0214685 0 -6.0214685 0 -6.0214686 180 
	-6.0214686 0 -6.0197314 0 -6.0214686 180 -6.0214685 -0 
	-6.0214685 0 -6.0214685 180 -6.0197314 0 -6.0214686 -0 
	-6.0214686 180 -6.0214685 -0 -6.0214686 -0 -6.0197314 0 
0.47 -6.0197314 0 -6.0214685 0 -6.0214685 0 -6.0214686 180 
	-6.0214686 0 -6.0197314 0 -6.0214686 180 -6.0214685 -0 
	-6.0214685 0 -6.0214685 180 -6.0197314 0 -6.0214686 -0 
	-6.0214686 180 -6.0214685 -0 -6.0214686 -0 -6.0197314 0 
0.48 -6.0197314 0 -6.0214685 0 -6.0214685 0 -6.0214686 180 
	-6.0214686 0 -6.0197314 0 -6.0214686 180 -6.0214685 -0 
	-6.0214685 0 -6.0214685 180 -6.0197314 0 -6.0214686 -0 
	-6.0214686 180 -6.0214685 -0 -6.0214686 -0 -6.0197314 0 
0.49 -6.0197314 0 -6.0214685 0 -6.0214685 0 -6.0214686 180 
	-6.0214686 0 -6.0197314 0 -6.0214686 180 -6.0214685 -0 
	-6.0214685 0 -6.0214685 180 -6.0197314 0 -6.0214686 -0 
	-6.0214686 180 -6.0214685 -0 -6.0214686 -0 -6.0197314 0 
0.5 -6.0197314 0 -6.0214685 0 -6.0214685 0 -6.0214686 180 
	-6.0214686 0 -6.0197314 0 -6.0214686 180 -6.0214685 -0 
	-6.0214685 0 -6.0214685 180 -6.0197314 0 -6.0214686 -0 
	-6.0214686 180 -6.0214685 -0 -6.0214686 -0 -6.0197314 0 
0.51 -6.0197314 0 -6.0214685 0 -6.0214685 0 -6.0214686 180 
	-6.0214686 0 -6.0197314 0 -6.0214686 180 -6.0214685 -0 
	-6.0214685 0 -6.0214685 180 -6.0197314 0 -6.0214686 -0 
	-6.0214686 180 -6.0214685 -0 -6.0214686 -0 -6.0197314 0 
0.52 -6.0197314 0 -6.0214685 0 -6.0214685 0 -6.0214686 180 
	-6.0214686 0 -6.0197314 0 -6.0214686 180 -6.0214685 -0 
	-6.0214685 0 -6.0214685 180 -6.0197314 0 -6.0214686 -0 
	-6.0214686 180 -6.0214685 -0 -6.0214686 -0 -6.0197314 0 
0.53 -6.0197314 0 -6.0214685 0 -6.0214685 0 -6.0214686 180 
	-6.0214686 0 -6.0197314 0 -6.0214686 180 -6.0214685 -0 
	-6.0214685 0 -6.0214685 180 -6.0197314 0 -6.0214686 -0 
	-6.0214686 180 -6.0214685 -0 -6.0214686 -0 -6.0197314 0 
0.54 -6.0197314 0 -6.0214685 0 -6.0214685 0 -6.0214686 180 
	-6.0214686 0 -6.0197314 0 -6.0214686 180 -6.0214685 -0 
	-6.0214685 0 -6.0214685 180 -6.0197314 0 -6.0214686 -0 
	-6.0214686 180 -6.0214685 -0 -6.0214686 -0 -6.0197314 0 
0.55 -6.0197314 0 -6.0214685 0 -6.0214685 0 -6.0214686 180 
	-6.0214686 0 -6.0197314 0 -6.0214686 180 -6.0214685 -0 
	-6.0214685 0 -6.0214685 180 -6.0197314 0 -6.0214686 -0 
	-6.0214686 180 -6.0214685 -0 -6.0214686 -0 -6.0197314 0 
0.56 -6.0197314 0 -6.0214685 0 -6.0214685 0 -6.0214686 180 
	-6.0214686 0 -6.0197314 0 -6.0214686 180 -6.0214685 -0 
	-6.0214685 0 -6.0214685 180 -6.0197314 0 -6.0214686 -0 
	-6.0214686 180 -6.0214685 -0 -6.0214686 -0 -6.0197314 0 
0.57 -6.0197314 0 -6.0214685 0 -6.0214685 0 -6.0214686 180 
	-6.0214686 0 -6.0197314 0 -6.0214686 180 -6.0214685 -0 
	-6.0214685 0 -6.0214685 180 -6.0197314 0 -6.0214686 -0 
	-6.0214686 180 -6.0214685 -0 -6.0214686 -0 -6.0197314 0 
0.58 -6.0197314 0 -6.0214685 0 -6.0214685 0 -6.0214686 180 
	-6.0214686 0 -6.0197314 0 -6.0214686 180 -6.0214685 -0 
	-6.0214685 0 -6.0214685 180 -6.0197314 0 -6.0214686 -0 
	-6.0214686 180 -6.0214685 -0 -6.0214686 -0 -6.0197314 0 
0.59 -6.0197314 0 -6.0214685 0 -6.0214685 0 -6.0214686 180 
	-6.0214686 0 -6.0197314 0 -6.0214686 180 -6.0214685 -0 
	-6.0214685 0 -6.0214685 180 -6.0197314 0 -6.0214686 -0 
	-6.0214686 180 -6.0214685 -0 -6.0214686 -0 -6.0197314 0 
0.6 -6.0197314 0 -6.0214685 0 -6.0214685 0 -6.0214686 180 
	-6.0214686 0 -6.0197314 0 -6.0214686 180 -6.0214685 -0 
	-6.0214685 0 -6.0214685 180 -6.0197314 0 -6.0214686 -0 
	-6.0214686 180 -6.0214685 -0 -6.0214686 -0 -6.0197314 0 
0.61 -6.0197314 0 -6.0214685 0 -6.0214685 0 -6.0214686 180 
	-6.0214686 0 -6.0197314 0 -6.0214686 180 -6.0214685 -0 
	-6.0214685 0 -6.0214685 180 -6.0197314 0 -6.0214686 -0 
	-6.0214686 180 -6.0214685 -0 -6.0214686 -0 -6.0197314 0 
0.62 -6.0197314 0 -6.0214685 0 -6.0214685 0 -6.0214686 180 
	-6.0214686 0 -6.0197314 0 -6.0214686 180 -6.0214685 -0 
	-6.0214685 0 -6.0214685 180 -6.0197314 0 -6.0214686 -0 
	-6.0214686 180 -6.0214685 -0 -6.0214686 -0 -6.0197314 0 
0.63 -6.0197314 0 -6.0214685 0 -6.0214685 0 -6.0214686 180 
	-6.0214686 0 -6.0197314 0 -6.0214686 180 -6.0214685 -0 
	-6.0214685 0 -6.0214685 180 -6.0197314 0 -6.0214686 -0 
	-6.0214686 180 -6.0214685 -0 -6.0214686 -0 -6.0197314 0 
0.64 -6.0197314 0 -6.0214685 0 -6.0214685 0 -6.0214686 180 
	-6.0214686 0 -6.0197314 0 -6.0214686 180 -6.0214685 -0 
	-6.0214685 0 -6.0214685 180 -6.0197314 0 -6.0214686 -0 
	-6.0214686 180 -6.0214685 -0 -6.0214686 -0 -6.0197314 0 
0.65 -6.0197314 0 -6.0214685 0 -6.0214685 0 -6.0214686 180 
	-6.0214686 0 -6.0197314 0 -6.0214686 180 -6.0214685 -0 
	-6.0214685 0 -6.0214685 180 -6.0197314 0 -6.0214686 -0 
	-6.0214686 180 -6.0214685 -0 -6.0214686 -0 -6.0197314 0 
0.66 -6.0197314 0 -6.0214685 0 -6.0214685 0 -6.0214686 180 
	-6.0214686 0 -6.0197314 0 -6.0214686 180 -6.0214685 -0 
	-6.0214685 0 -6.0214685 180 -6.0197314 0 -6.0214686 -0 
	-6.0214686 180 -6.0214685 -0 -6.0214686 -0 -6.0197314 0 
0.67 -6.0197314 0 -6.0214685 0 -6.0214685 0 -6.0214686 180 
	-6.0214686 0 -6.0197314 0 -6.0214686 180 -6.0214685 -0 
	-6.0214685 0 -6.0214685 180 -6.0197314 0 -6.0214686 -0 
	-6.0214686 180 -6.0214685 -0 -6.0214686 -0 -6.0197314 0 
0.68 -6.0197314 0 -6.0214685 0 -6.0214685 0 -6.0214686 180 
	-6.0214686 0 -6.0197314 0 -6.0214686 180 -6.0214685 -0 
	-6.0214685 0 -6.0214685 180 -6.0197314 0 -6.0214686 -0 
	-6.0214686 180 -6.0214685 -0 -6.0214686 -0 -6.0197314 0 
0.69 -6.0197314 0 -6.0214685 0 -6.0214685 0 -6.0214686 180 
	-6.0214686 0 -6.0197314 0 -6.0214686 180 -6.0214685 -0 
	-6.0214685 0 -6.0214685 180 -6.0197314 0 -6.0214686 -0 
	-6.0214686 180 -6.0214685 -0 -6.0214686 -0 -6.0197314 0 
0.7 -6.0197314 0 -6.0214685 0 -6.0214685 0 -6.0214686 180 
	-6.0214686 0 -6.0197314 0 -6.0214686 180 -6.0214685 -0 
	-6.0214685 0 -6.0214685 180 -6.0197314 0 -6.0214686 -0 
	-6.0214686 180 -6.0214685 -0 -6.0214686 -0 -6.0197314 0 
0.71 -6.0197314 0 -6.0214685 0 -6.0214685 0 -6.0214686 180 
	-6.0214686 0 -6.0197314 0 -6.0214686 180 -6.0214685 -0 
	-6.0214685 0 -6.0214685 180 -6.0197314 0 -6.0214686 -0 
	-6.0214686 180 -6.0214685 -0 -6.0214686 -0 -6.0197314 0 
0.72 -6.0197314 0 -6.0214685 0 -6.0214685 0 -6.0214686 180 
	-6.0214686 0 -6.0197314 0 -6.0214686 180 -6.0214685 -0 
	-6.0214685 0 -6.0214685 180 -6.0197314 0 -6.0214686 -0 
	-6.0214686 180 -6.0214685 -0 -6.0214686 -0 -6.0197314 0 
0.73 -6.0197314 0 -6.0214685 0 -6.0214685 0 -6.0214686 180 
	-6.0214686 0 -6.0197314 0 -6.0214686 180 -6.0214685 -0 
	-6.0214685 0 -6.0214685 180 -6.0197314 0 -6.0214686 -0 
	-6.0214686 180 -6.0214685 -0 -6.0214686 -0 -6.0197314 0 
0.74 -6.0197314 0 -6.0214685 0 -6.0214685 0 -6.0214686 180 
	-6.0214686 0 -6.0197314 0 -6.0214686 180 -6.0214685 -0 
	-6.0214685 0 -6.0214685 180 -6.0197314 0 -6.0214686 -0 
	-6.0214686 180 -6.0214685 -0 -6.0214686 -0 -6.0197314 0 
0.75 -6.0197314 0 -6.0214685 0 -6.0214685 0 -6.0214686 180 
	-6.0214686 0 -6.0197314 0 -6.0214686 180 -6.0214685 -0 
	-6.0214685 0 -6.0214685 180 -6.0197314 0 -6.0214686 -0 
	-6.0214686 180 -6.0214685 -0 -6.0214686 -0 -6.0197314 0 
0.76 -6.0197314 0 -6.0214685 0 -6.0214685 0 -6.0214686 180 
	-6.0214686 0 -6.0197314 0 -6.0214686 180 -6.0214685 -0 
	-6.0214685 0 -6.0214685 180 -6.0197314 0 -6.0214686 -0 
	-6.0214686 180 -6.0214685 -0 -6.0214686 -0 -6.0197314 0 
0.77 -6.0197314 0 -6.0214685 0 -6.0214685 0 -6.0214686 180 
	-6.0214686 0 -6.0197314 0 -6.0214686 180 -6.0214685 -0 
	-6.0214685 0 -6.0214685 180 -6.0197314 0 -6.0214686 -0 
	-6.0214686 180 -6.0214685 -0 -6.0214686 -0 -6.0197314 0 
0.78 -6.0197314 0 -6.0214685 0 -6.0214685 0 -6.0214686 180 
	-6.0214686 0 -6.0197314 0 -6.0214686 180 -6.0214685 -0 
	-6.0214685 0 -6.0214685 180 -6.0197314 0 -6.0214686 -0 
	-6.0214686 180 -6.0214685 -0 -6.0214686 -0 -6.0197314 0 
0.79 -6.0197314 0 -6.0214685 0 -6.0214685 0 -6.0214686 180 
	-6.0214686 0 -6.0197314 0 -6.0214686 180 -6.0214685 -0 
	-6.0214685 0 -6.0214685 180 -6.0197314 0 -6.0214686 -0 
	-6.0214686 180 -6.0214685 -0 -6.0214686 -0 -6.0197314 0 
0.8 -6.0197314 0 -6.0214685 0 -6.0214685 0 -6.0214686 180 
	-6.0214686 0 -6.0197314 0 -6.0214686 180 -6.0214685 -0 
	-6.0214685 0 -6.0214685 180 -6.0197314 0 -6.0214686 -0 
	-6.0214686 180 -6.0214685 -0 -6.0214686 -0 -6.0197314 0 
0.81 -6.0197314 0 -6.0214685 0 -6.0214685 0 -6.0214686 180 
	-6.0214686 0 -6.0197314 0 -6.0214686 180 -6.0214685 -0 
	-6.0214685 0 -6.0214685 180 -6.0197314 0 -6.0214686 -0 
	-6.0214686 180 -6.0214685 -0 -6.0214686 -0 -6.0197314 0 
0.82 -6.0197314 0 -6.0214685 0 -6.0214685 0 -6.0214686 180 
	-6.0214686 0 -6.0197314 0 -6.0214686 180 -6.0214685 -0 
	-6.0214685 0 -6.0214685 180 -6.0197314 0 -6.0214686 -0 
	-6.0214686 180 -6.0214685 -0 -6.0214686 -0 -6.0197314 0 
0.83 -6.0197314 0 -6.0214685 0 -6.0214685 0 -6.0214686 180 
	-6.0214686 0 -6.0197314 0 -6.0214686 180 -6.0214685 -0 
	-6.0214685 0 -6.0214685 180 -6.0197314 0 -6.0214686 -0 
	-6.0214686 180 -6.0214685 -0 -6.0214686 -0 -6.0197314 0 
0.84 -6.0197314 0 -6.0214685 0 -6.0214685 0 -6.0214686 180 
	-6.0214686 0 -6.0197314 0 -6.0214686 180 -6.0214685 -0 
	-6.0214685 0 -6.0214685 180 -6.0197314 0 -6.0214686 -0 
	-6.0214686 180 -6.0214685 -0 -6.0214686 -0 -6.0197314 0 
0.85 -6.0197314 0 -6.0214685 0 -6.0214685 0 -6.0214686 180 
	-6.0214686 0 -6.0197314 0 -6.0214686 180 -6.0214685 -0 
	-6.0214685 0 -6.0214685 180 -6.0197314 0 -6.0214686 -0 
	-6.0214686 180 -6.0214685 -0 -6.0214686 -0 -6.0197314 0 
0.86 -6.0197314 0 -6.0214685 0 -6.0214685 0 -6.0214686 180 
	-6.0214686 0 -6.0197314 0 -6.0214686 180 -6.0214685 -0 
	-6.0214685 0 -6.0214685 180 -6.0197314 0 -6.0214686 -0 
	-6.0214686 180 -6.0214685 -0 -6.0214686 -0 -6.0197314 0 
0.87 -6.0197314 0 -6.0214685 0 -6.0214685 0 -6.0214686 180 
	-6.0214686 0 -6.0197314 0 -6.0214686 180 -6.0214685 -0 
	-6.0214685 0 -6.0214685 180 -6.0197314 0 -6.0214686 -0 
	-6.0214686 180 -6.0214685 -0 -6.0214686 -0 -6.0197314 0 
0.88 -6.0197314 0 -6.0214685 0 -6.0214685 0 -6.0214686 180 
	-6.0214686 0 -6.0197314 0 -6.0214686 180 -6.0214685 -0 
	-6.0214685 0 -6.0214685 180 -6.0197314 0 -6.0214686 -0 
	-6.0214686 180 -6.0214685 -0 -6.0214686 -0 -6.0197314 0 
0.89 -6.0197314 0 -6.0214685 0 -6.0214685 0 -6.0214686 180 
	-6.0214686 0 -6.0197314 0 -6.0214686 180 -6.0214685 -0 
	-6.0214685 0 -6.0214685 180 -6.0197314 0 -6.0214686 -0 
	-6.0214686 180 -6.0214685 -0 -6.0214686 -0 -6.0197314 0 
0.9 -6.0197314 0 -6.0214685 0 -6.0214685 0 -6.0214686 180 