! Touchstone file from project Project26
! Exported from HFSS 2014.0.7
! Variables:
!  wg2A = 122mil
!  wg2B = 61mil
!  wgA = 148mil
!  wgB = 74mil
!  wgLen = 1.616mm
!  wgLen2 = 122mil
!Data is not renormalized
# GHZ S MA
! Modal data exported
! Port[1] = 1:1
! Port[2] = 2:1
60               0.00711124584352602 4.54774760693356 0.988928009734232 94.3765029698515 0.988928009734242 94.3765029698522 0.00698360479377925 -1.01012800241532 
! Gamma         !               0.417313820704681 744.394900691072 0.417307746576565 744.399032232786 
! Port Impedance392.359437943816 0.231873922920449 392.391998187176 0.232014222252011 

60.075           0.00796946315495752 4.73424323149028 0.988946870939326 90.2906706794874 0.988946870939335 90.290670679488  0.00782069374461344 -8.62999563441515 
! Gamma         !               0.416202794421685 747.047589748407 0.416196762516548 747.051706625903 
! Port Impedance391.454780715959 0.230118155093727 391.487254000038 0.23025824834735 

60.15            0.00882193054594936 4.83034414806267 0.988965008329612 86.2141905039196 0.98896500832962 86.2141905039202 0.00865236438637139 -16.305943340277 
! Gamma         !               0.41510348727091 749.694188919299 0.415097497053488 749.698291269669 
! Port Impedance390.559697594776 0.228391117310978 390.592084917748 0.228531009680512 

60.225           0.00966855476176752 4.86143313055218 0.988982425274982 82.1469668495777 0.988982425274989 82.1469668495782 0.00947854901260586 -24.0174153455015 
! Gamma         !               0.414015712738026 752.334762472702 0.414009763683713 752.338850430888 
! Port Impedance389.674032515785 0.226692178961837 389.706334858166 0.226831875531678 

60.3             0.01050928724351 4.84443299071024 0.988999125503157 78.0889053799573 0.988999125503163 78.0889053799578 0.0102992114375101 -31.7507333266935 
! Gamma         !               0.412939288419916 754.969373633124 0.412933380014486 754.973447331968 
! Port Impedance388.797632892459 0.225020727175512 388.829851217536 0.225160232923689 

60.375           0.0113441083209287 4.79104771373915 0.989015113085309 74.0399129993577 0.989015113085314 74.0399129993582 0.0111143364022494 -39.4964727016937 
! Gamma         !               0.411874035908926 757.59808460383  0.411868167648258 757.602144174118 
! Port Impedance387.930349517758 0.223376166214033 387.962484771998 0.223515486015193 

60.45            0.0121730179846079 4.70962052063805 0.98903039242193 69.9998978368643 0.989030392421934 69.9998978368647 0.011923923319707 -47.2479539431239 
! Gamma         !               0.410819780681064 760.220956589393 0.41081395207087 760.225002159898 
! Port Impedance387.072036469035 0.221757916889899 387.104089582486 0.221897055518176 

60.525           0.0129960301876255 4.60625137714503 0.989044968228953 65.968769230566  0.989044968228956 65.9687692305664 0.0127279823574058 -55.0003328217684 
! Gamma         !               0.409776351987992 762.838049817609 0.409770562543569 762.842081515137 
! Port Impedance386.222551016196 0.220165416006975 386.254522902873 0.220304378138774 

60.6             0.013813169146518 4.48549671688443 0.989058845524142 61.9464377119933 0.989058845524146 61.9464377119937 0.0135265318512986 -62.7500294741305 
! Gamma         !               0.408743582752682 765.449423560803 0.408737831998659 765.453441510235 
! Port Impedance385.381753532954 0.218598115823598 385.413645091219 0.218736906040278 

60.675           0.0146244668291808 4.3508228566244  0.989072029613737 57.9328149907743 0.98907202961374 57.9328149907746 0.01431959651391 -70.4943577104867 
! Gamma         !               0.407721309468562 768.055136156547 0.40771559693866 768.059140480877 
! Port Impedance384.549507411092 0.217055483536867 384.581319524011 0.217194106327333 

60.75            0.0154299611772301 4.2049086262363  0.989084526079368 53.9278139394895 0.98908452607937 53.9278139394898 0.0151072061371284 -78.2312771693123 
! Gamma         !               0.406709372102031 770.655245027802 0.406703697338831 770.659235848181 
! Port Impedance383.725678977578 0.215537000787159 383.757412513284 0.215675460550365 

60.825           0.0162296948001667 4.04985263271879 0.989096340765242 49.931348578727  0.989096340765244 49.9313485787272 0.0158893946152082 -85.9592233153062 
! Gamma         !               0.405707613998212 773.249806702513 0.405701976552929 773.253784138283 
! Port Impedance382.910137414452 0.214042163181961 382.941793226482 0.214180464229333 

60.9             0.0170237139832482 3.88731846582879 0.989107479765601 45.9433340623237 0.989107479765602 45.9433340623239 0.016666199182713 -93.6769881796289 
! Gamma         !               0.404715881789802 775.838876832668 0.404710281222068 775.842841001405 
! Port Impedance382.102754681355 0.212570479838159 382.134333608987 0.212708626395937 

60.975           0.0178120679108054 3.7186384922991  0.98911794941245 41.963686662788  0.989117949412451 41.9636866627882 0.0174376598017965 -101.383635012168 
! Gamma         !               0.403734025308921 778.422510212843 0.403728461186571 778.426461230389 
! Port Impedance381.30340544061  0.211121472941957 381.334908309186 0.211259469153453 

61.05            0.0185948080421286 3.54488939226759 0.989127756263565 37.9923237568977 0.989127756263566 37.9923237568978 0.0182038186567231 -109.078436106292 
! Gamma         !               0.402761897501823 781.000760798249 0.402756369400692 781.00469877875  
! Port Impedance380.511966984746 0.209694677325645 380.543394605987 0.20983252725344 

61.125           0.0193719875986143 3.36694802430762 0.989136907090774 34.0291638114649 0.989136907090775 34.0291638114651 0.0189647197278783 -116.760826775216 
! Gamma         !               0.401799354346373 783.573681722291 0.401793861850099 783.577606778234 
! Port Impedance379.728319166386 0.208289640060494 379.759672338698 0.208427347688548 

61.2             0.0201436611343524 3.18553334778741 0.989145408868511 30.0741263692679 0.989145408868512 30.074126369268  0.0197204084265044 -124.430370789394 
! Gamma         !               0.400846254772182 786.141325313671 0.400840797472011 786.145237555911 
! Port Impedance378.952344330392 0.206905920065038 378.983623839163 0.207043489300743 

61.275           0.0209098841709792 3.00123830067966 0.989153268762646 26.1271320351334 0.989153268762647 26.1271320351335 0.0204709312771656 -132.086734079318 
! Gamma         !               0.399902460583301 788.703743113026 0.399897038077902 788.707642650826 
! Port Impedance378.183927248193 0.205543087728114 378.215133866081 0.205680522404275 

61.35            0.0216707128832822 2.81455433308816 0.989160494119591 22.18810246218   0.989160494119591 22.18810246218   0.0212163356387258 -139.729664487544 
! Gamma         !               0.398967836383364 791.260985889139 0.398962448278646 791.264872830199 
! Port Impedance377.422955054213 0.204200724545994 377.454089541426 0.204338028422748 

61.425           0.0224262038258254 2.6258904976481  0.989167092455674 18.2569603382073 0.989167092455674 18.2569603382074 0.0219566694571533 -147.358976008   
! Gamma         !               0.398042249503111 793.813103654722 0.398036895412053 793.81697810521  
! Port Impedance376.669317184309 0.20287842277302 376.700380288881 0.203015599539696 

61.5             0.0231764136934389 2.43558845539219 0.98917307144679 14.3336293722275 0.98917307144679 14.3336293722275 0.0226919810451881 -154.97453639531 
! Gamma         !               0.39712556993019 796.360145681789 0.397120249472665 796.364007746374 
! Port Impedance375.922905316166 0.201575785085154 375.95389777422  0.20171283836207 

61.575           0.0239213991102015 2.24393438131337 0.989178438918316 10.4180342811431 0.989178438918316 10.4180342811431 0.0234223188851047 -162.576257333993 
! Gamma         !               0.396217670241148 798.902160516636 0.396212383043761 798.906010298514 
! Port Impedance375.18361331155  0.200292424255909 375.214535847554 0.200429357596117 

61.65            0.0246612164427984 2.05116849167855 0.989183202835297 6.51010077655937 0.989183202835297 6.51010077655938 0.0241477314516463 -170.164086572707 
! Gamma         !               0.395318425535542 801.439195994426 0.395313171231469 801.443033595351 
! Port Impedance374.451337160369 0.19902796284412 374.48219048739  0.199164779735092 

61.725           0.0253959216350397 1.85749272902096 0.989187371292893 2.60975555173478 0.989187371292894 2.60975555173477 0.0248682670528106 -177.738001581699 
! Gamma         !               0.394427713372089 803.971299253416 0.394422491600925 803.97512477373  
! Port Impedance373.725974926477 0.197782032893077 373.756759746424 0.197918736758344 

61.8             0.0261255700609762 1.66307700690896 0.989190952507093 -1.28307373133994 0.989190952507094 -1.28307373133995 0.0255839736866113 174.701995598296 
! Gamma         !               0.39354541370678 806.498516748811 0.393540224114382 806.502330287467 
! Port Impedance373.007426695137 0.196554275640533 373.038143698998 0.196690869841267 

61.875           0.0268502163945339 1.46806431923094 0.989193954805684 -5.16845845472893 0.989193954805684 -5.16845845472895 0.0262948989122613 167.155882567306 
! Gamma         !               0.39267140883288 809.020894266273 0.392666251071226 809.024695920867 
! Port Impedance372.29559452211  0.195344341239138 372.326244390184 0.19548082907569 

61.95            0.0275699144939472 1.27257494712487 0.989196386619479 -9.04646905721206 0.989196386619479 -9.0464690572121 0.0270010897344749 159.623620030131 
! Gamma         !               0.391805583322763 811.538476935088 0.391800457049808 811.542266801881 
! Port Impedance371.590382384292 0.194151888486873 371.620965786412 0.194288273200262 

62.025           0.0282847172995532 1.07670994346878 0.989198256473799 -12.9171750468232 0.989198256473799 -12.9171750468232 0.0277025924997731 152.105154661819 
! Gamma         !               0.390947823971498 814.051309241012 0.390942728851037 814.055087414957 
! Port Impedance370.891696131848 0.192976584567068 370.922213727603 0.19311286934043 

62.1             0.0289946767437112 0.880554034931633 0.989199572980201 -16.7806450132601 0.989199572980202 -16.7806450132601 0.0283994528038189 144.600421490446 
! Gamma         !               0.390098019742142 816.559435038784 0.390092955443673 816.563201613552 
! Port Impedance370.199443441801 0.191818104797619 370.229895880744 0.191954292757601 

62.175           0.0296998436717917 0.684178051363798 0.98920034482846 -20.6369466401727 0.989200344828462 -20.6369466401727 0.0290917154089332 137.109345888021 
! Gamma         !               0.389256061712657 819.062897564341 0.389251027911254 819.066652632345 
! Port Impedance369.513533773    0.190676132389024 369.543921694862 0.190812226607149 

62.25            0.0304002677732997 0.487640969240576 0.989200580778785 -24.4861467173367 0.989200580778786 -24.4861467173368 0.0297794241710286 129.631845241333 
! Gamma         !               0.388421843024414 821.561739446731 0.388416839400601 821.565483099147 
! Port Impedance368.833878322449 0.189550358210882 368.864202357335 0.189686361704864 

62.325           0.0310959975223138 0.290991638122965 0.98920028965428 -28.3283111527012 0.989200289654281 -28.3283111527013 0.0304626219752772 122.167830359878 
! Gamma         !               0.387595258832228 824.056002719729 0.387590285071852 824.059735046522 
! Port Impedance368.160389982921 0.188440480566525 368.190650751511 0.18857639630155 

62.4             0.031787080126505 0.0942702453417718 0.989199480333638 -32.163504984322 0.98919948033364 -32.1635049843221 0.0311413506798947 114.717206666616 
! Gamma         !               0.386776206255848 826.545728833178 0.386771262049964 826.549449923124 
! Port Impedance367.492983301834 0.187346204975443 367.523181415573 0.187482035865411 

62.475           0.0324735614840758 -0.102490436637433 0.989198161744075 -35.9917923921796 0.989198161744076 -35.9917923921796 0.0318156510674711 107.279875208429 
! Gamma         !               0.385964584332882 829.030958664049 0.385959669377633 829.034668604758 
! Port Impedance366.831574441329 0.186267243963207 366.861710502613 0.186402992871937 

62.55            0.0331554861480193 -0.299263984144635 0.989196342854474 -39.8132367098781 0.989196342854476 -39.8132367098782 0.03248556280333 99.855733516163  
! Gamma         !               0.385160293973086 831.511732527243 0.385155407969593 831.515431405177 
! Port Impedance366.176081139521 0.185203316858579 366.206155741879 0.185338986600977 

62.625           0.0338328972971529 -0.496029408194622 0.989194032668775 -43.6279004362323 0.989194032668777 -43.6279004362325 0.0331511244004348 92.4446763386089 
! Gamma         !               0.384363237913976 833.988090186122 0.384358380568229 833.99177808662  
! Port Impedance365.526422672871 0.184154149597537 365.556436401146 0.184289742940737 

62.7             0.0345058367134246 -0.692770368310937 0.989191240219565 -47.435845246741 0.989191240219567 -47.4358452467411 0.0338123731903949 85.0465962703577 
! Gamma         !               0.383573320677729 836.460070862805 0.383568491700477 836.4637478701   
! Port Impedance364.882519819656 0.183119474533948 364.912473250174 0.183254994198414 

62.775           0.0351743447650326 -0.889474494509812 0.9891879745619  -51.2371320049463 0.989187974561903 -51.2371320049464 0.0344693453001596 77.661384289966  
! Gamma         !               0.382790448529308 838.927713248205 0.382785647635956 838.931379445448 
! Port Impedance364.244294824483 0.182099030256613 364.274188525222 0.182234478917208 

62.85            0.0358384603949286 -1.08613280109778 0.989184244767329 -55.0318207736807 0.989184244767332 -55.0318207736808 0.0351220756340097 70.2889302220108 
! Gamma         !               0.382014529435789 841.39105551184  0.382009756346297 841.394710981115 
! Port Impedance363.611671363819 0.181092561412454 363.641505894574 0.181227941699484 

62.925           0.0364982211143136 -1.28273917870463 0.989180059918128 -58.8199708262055 0.98918005991813 -58.8199708262056 0.035770597860487 62.9291231343155 
! Gamma         !               0.381245473026838 843.850135311409 0.381240727465627 843.853780133757 
! Port Impedance362.984574512511 0.180099818535597 363.014350425055 0.180235133035825 

63               0.0371536630007547 -1.47928995322002 0.989175429101739 -62.6016406572336 0.989175429101742 -62.6016406572337 0.036414944403921 55.5818516797812 
! Gamma         !               0.380483190556312 846.304989802146 0.380478472252161 846.30862405758  
! Port Impedance362.362930711246 0.179120557882135 362.392648549485 0.179255809139762 

63.075           0.0378048207005831 -1.67578350214662 0.989170361405412 -66.3768879938458 0.989170361405415 -66.3768879938459 0.0370551464402348 48.2470043906998 
! Gamma         !               0.379727594864924 848.755655645958 0.379722903550883 848.759279413482 
! Port Impedance361.746667734937 0.178154541270341 361.776328035062 0.178289731787963 

63.15            0.0384517274352511 -1.87221992038711 0.989164865911035 -70.1457698062966 0.989164865911039 -70.1457698062967 0.0376912338967297 40.9244699321983 
! Gamma         !               0.378978600343966 851.202169020348 0.378973935757261 851.205782377976 
! Port Impedance361.135714661989 0.177201535926133 361.165317952625 0.177336668165669 

63.225           0.0390944150113514 -2.06860072872725 0.989158951690164 -73.9083423187087 0.989158951690167 -73.9083423187088 0.0383232354555678 33.6141373204248 
! Gamma         !               0.378236122900032 853.644565627138 0.37823148478198 853.648168651911 
! Port Impedance360.530001844425 0.176261314333595 360.559548646779 0.17639639071719 

63.3             0.039732913834015 -2.26492861930606 0.989152627799232 -77.6646610196591 0.989152627799235 -77.6646610196592 0.0389511785606854 26.3158961102223 
! Gamma         !               0.37750007992072 856.082880700991 0.377495468016642 856.086473468992 
! Port Impedance359.929460878849 0.175333654090352 359.958951706847 0.175468677001261 

63.375           0.0403672529234262 -2.4612072332188 0.989145903274949 -81.4147806726607 0.989145903274953 -81.4147806726608 0.0395750894278873 19.029636556326  
! Gamma         !               0.376770390241278 858.517149017736 0.376765804300414 858.52073160411  
! Port Impedance359.3340245782   0.174418337767636 359.363459938628 0.174553309551074 

63.45            0.0409974599342066 -2.65744096611106 0.989138787129882 -85.1587553265273 0.989138787129886 -85.1587553265274 0.0401949930578842 11.7552497515568 
! Gamma         !               0.376046974112162 860.947404902509 0.376042413887593 860.950977381476 
! Port Impedance358.743626944293 0.173515152774852 358.77300733693  0.173650075738824 

63.525           0.041623561177435 -2.85363479821949 0.989131288348203 -88.8966383256408 0.989131288348207 -88.896638325641 0.0408109132520501 4.49262774492802 
! Gamma         !               0.375329753167481 863.373682237707 0.375325218416045 863.377244682582 
! Port Impedance358.158203141104 0.172623891228481 358.187529058855 0.172758767644595 

63.6             0.0422455816450835 -3.049794145816  0.989123415881616 -92.6284823201006 0.98912341588162 -92.6284823201007 0.0414228726306871 -2.75833635776183 
! Gamma         !               0.374618650394295 865.796014470768 0.374614140876513 865.799566953972 
! Port Impedance357.57768946879  0.171744349825175 357.606961397814 0.171879181929427 

63.675           0.0428635450366631 -3.24592473143366 0.98911517864545 -96.3543392757735 0.989115178645454 -96.3543392757736 0.0420308926535982 -9.99774830870187 
! Gamma         !               0.37391359010274 868.214434621771 0.373909105582741 868.217977214849 
! Port Impedance357.002023338408 0.170876329718864 357.031241758242 0.171011119712403 

63.75            0.0434774737878822 -3.44203247061373 0.989106585514915 -100.074260484235 0.989106585514919 -100.074260484235 0.0426349936427766 -17.2257126463004 
! Gamma         !               0.373214497896964 870.628975290878 0.373210038142409 870.632508064513 
! Port Impedance356.431143247313 0.170019636401757 356.460308630998 0.170154386451633 

63.825           0.0440873891011346 -3.63812337320915 0.98909764532152 -103.788296572597 0.989097645321524 -103.788296572597 0.0432351948070318 -24.442332635238 
! Gamma         !               0.372521300646827 873.039668665594 0.372516865428839 873.043191689623 
! Port Impedance355.86498875523  0.169174079589071 355.894101569426 0.169308791828958 

63.9             0.0446933109776418 -3.83420345754723 0.989088366849646 -107.496497513242 0.98908836684965 -107.496497513242 0.0438315142683835 -31.6477102169588 
! Gamma         !               0.371833926460364 875.446546527891 0.371829515553459 875.450059871316 
! Port Impedance355.303500460947 0.168339473107375 355.332561166053 0.168474149638279 

63.975           0.0452952582510813 -4.03027867596564 0.989078758833274 -111.198912633439 0.989078758833278 -111.198912633439 0.044423969090058 -38.841945969315 
! Gamma         !               0.371152304656974 877.849640261154 0.371147917838991 877.853143992158 
! Port Impedance354.746619979641 0.1675156347864  354.775629029909 0.167650277677345 

64.05            0.0458932486225491 -4.2263548504293 0.989068829952859 -114.895590624859 0.989068829952863 -114.895590624859 0.0450125753059343 -46.0251390743317 
! Gamma         !               0.370476365741309 880.248980856987 0.370472002793345 880.25247504295  
! Port Impedance354.194289920799 0.166702386354204 354.223247764444 0.166836997642904 

64.125           0.0464872986967022 -4.42243761709737 0.989058588832355 -118.586579552982 0.989058588832359 -118.586579552982 0.0455973479512949 -53.1973872931205 
! Gamma         !               0.369806041377858 882.644598921873 0.369801702084205 882.648083629381 
! Port Impedance353.64645386672  0.165899553335569 353.67536094603  0.166034135029082 

64.2             0.0470774240189433 -4.61853237884516 0.989048044036373 -122.271926866407 0.989048044036377 -122.271926866407 0.0461783010947393 -60.3587869471378 
! Gamma         !               0.369141264366188 885.036524683683 0.369136948514266 885.039999978545 
! Port Impedance353.103056351584 0.165106964953516 353.131913103025 0.165241519028874 

64.275           0.0476636391135117 -4.8146442648688 0.98903720406749 -125.95167940604 0.989037204067494 -125.95167940604 0.0467554478711293 -67.5094329050408 
! Gamma         !               0.368481968616825 887.424787998053 0.368477675997125 887.428253945309 
! Port Impedance352.564042841061 0.164324454033822 352.592849695383 0.164458982438656 

64.35            0.0482459575223528 -5.01077809660479 0.989026077363679 -129.625883414197 0.989026077363683 -129.625883414197 0.0473288005154396 -74.6494185745193 
! Gamma         !               0.367828089127768 889.809418354617 0.367823819533787 889.812875018555 
! Port Impedance352.029359712456 0.163551856912445 352.058117094793 0.163686361565585 

64.425           0.0488243918446463 -5.20693835928273 0.989014672295884 -133.294584543588 0.989014672295889 -133.294584543588 0.0478983703973926 -81.778835898529 
! Gamma         !               0.367179561961595 892.190444883115 0.367175315189783 892.19389232728  
! Port Impedance351.498954235363 0.162789013345743 351.527662565332 0.162923496137808 

64.5             0.0493989537768746 -5.40312917851048 0.989002997165717 -136.957827866198 0.989002997165721 -136.957827866198 0.048464168056764 -88.8977753554207 
! Gamma         !               0.366536324223166 894.567896359364 0.366532100072867 894.571334646574 
! Port Impedance350.972774552816 0.162035766423405 351.001434244618 0.162170229217374 

64.575           0.0499696541533245 -5.59935430136043 0.988991060203273 -140.615657882074 0.988991060203277 -140.615657882074 0.0490262032392489 -96.0063259625515 
! Gamma         !               0.365898314037891 896.941801211113 0.365894112311282 896.945230403467 
! Port Impedance350.450769662929 0.161291962483981 350.47938112544  0.161426407115753 

64.65            0.0505365029869148 -5.79561708147885 0.988978869565082 -144.268118527994 0.988978869565086 -144.268118527994 0.0495844849327846 -103.104575282943 
! Gamma         !               0.365265470530542 899.312187523762 0.365261291032587 899.315607682653 
! Port Impedance349.932889400996 0.16055745103294 349.961453037859 0.160691879311879 

64.725           0.0510995095102516 -5.99192046780032 0.988966433332168 -147.915253186046 0.988966433332173 -147.915253186046 0.0501390214042307 -110.192609434675 
! Gamma         !               0.364637733804611 901.679083045978 0.364633576343003 901.682494232103 
! Port Impedance349.419084422049 0.159832084663157 349.44760063177  0.159966498372622 

64.8             0.0516586822168144 -6.1882669964871 0.98895375950823 -151.557104692089 0.988953759508235 -151.557104692089 0.0506898202363119 -117.270513102675 
! Gamma         !               0.364015044922181 904.042515195175 0.364010909307293 904.045917468549 
! Port Impedance348.909306183859 0.159115718977752 348.937775359891 0.159250119875614 

64.875           0.0522140289021847 -6.38465878575727 0.988940856017927 -155.193715344128 0.988940856017932 -155.193715344128 0.051236888364732 -124.338369552648 
! Gamma         !               0.363397345884302 906.402511062901 0.363393231929132 906.405904482865 
! Port Impedance348.403506930359 0.158408212515196 348.43192946119  0.158542602334347 

64.95            0.0527655567052272 -6.58109753330081 0.988927730705283 -158.825126910571 0.988927730705287 -158.825126910571 0.0517802321153746 -131.396260646879 
! Gamma         !               0.362784579611854 908.759097420095 0.36278048713198 908.762482045329 
! Port Impedance347.901639675484 0.15770942667662 347.930015944724 0.157843807125459 

65.025           0.0533132721491442 -6.77758451601135 0.988914391332187 -162.45138063839 0.988914391332192 -162.45138063839 0.0523198572415063 -138.44426686169 
! Gamma         !               0.362176689926888 911.112300722253 0.362172618740419 911.115676610782 
! Port Impedance347.403658187419 0.157019225655228 347.431988573881 0.157153598418148 

65.1             0.0538571811823235 -6.97412059178891 0.98890084557701 -166.072517261186 0.988900845577014 -166.072517261187 0.0528557689609054 -145.482467306369 
! Gamma         !               0.361573621534424 913.462147114473 0.36156957146195 913.465514323683 
! Port Impedance346.909516973229 0.156337476367778 346.93780185101  0.156471843105631 

65.175           0.0543972892189042 -7.17070620319586 0.988887101033308 -169.688577007139 0.988887101033313 -169.688577007139 0.0533879719928399 -152.510939743344 
! Gamma         !               0.360975320004699 915.808662436412 0.360971290869249 915.812021023055 
! Port Impedance346.419171263873 0.155664048388027 346.447411002436 0.155798410738582 

65.25            0.0549336011789906 -7.36734138276541 0.988873165208633 -173.299599606867 0.988873165208638 -173.299599606867 0.0539164705948257 -159.52976060951 
! Gamma         !               0.360381731755848 918.15187222713  0.360377723382843 918.155222247337 
! Port Impedance345.93257699959  0.154998813882099 345.960771963839 0.155133173460488 

65.325           0.0554661215284458 -7.56402575978513 0.988859045523434 -176.905624301181 0.988859045523439 -176.905624301181 0.0544412685990942 -166.539005038484 
! Gamma         !               0.359792804037008 920.491801729846 0.359788816254218 920.495143239135 
! Port Impedance345.449690815633 0.154341647545702 345.477841365993 0.154476005944857 

65.4             0.0559948543182013 -7.76075856839013 0.988844749310052 179.493310151261 0.988844749310056 179.493310151261 0.0549623694487075 -173.538746883717 
! Gamma         !               0.35920848491183 922.828475896593 0.359204517549328 922.831808949879 
! Port Impedance344.970470028364 0.153692426543138 344.998576520852 0.153826785334215 

65.475           0.0565198032230203 -7.957538656821  0.988830283811801 175.897165466397 0.988830283811806 175.897165466397 0.0554797762332591 179.470941257685 
! Gamma         !               0.358628723242388 925.161919392781 0.358624776132514 925.165244044385 
! Port Impedance344.494872621674 0.15305103044804 344.522935407974 0.153185391180835 

65.55            0.0570409715796594 -8.15436449770994 0.988815656182144 172.305903827314 0.988815656182149 172.305903827314 0.0559934917241008 172.489988020547 
! Gamma         !               0.358053468673483 927.492156601672 0.358049541650796 927.495472905331 
! Port Impedance344.022857233737 0.152417341185789 344.050876661271 0.152551705389142 

65.625           0.0575583624243715 -8.35123419927326 0.988800873483944 168.719487876886 0.988800873483948 168.719487876886 0.0565035184090423 165.518323246698 
! Gamma         !               0.357482671617309 929.819211628763 0.357478764518554 929.822519637637 
! Port Impedance343.554383144086 0.151791242977547 343.582359556083 0.15192561215974 

65.7             0.0580719785297003 -8.54814551729854 0.988785942688799 165.137880710521 0.988785942688803 165.137880710521 0.0570098585264714 158.555877959624 
! Gamma         !               0.356916283238496 932.143108306085 0.356912395902561 932.146408072765 
! Port Impedance343.089410260989 0.151172622285866 343.117343996556 0.151306997935004 

65.775           0.0585818224405169 -8.74509586782437 0.988770870676463 161.561045869001 0.988770870676467 161.561045869001 0.0575125140988438 151.602584338807 
! Gamma         !               0.356354255439506 934.463870196414 0.356350387707382 934.467161772935 
! Port Impedance342.627899109136 0.150561367761802 342.655790503324 0.150695751346197 

65.85            0.0590878965092536 -8.94208234041867 0.988755664234333 157.988947331426 0.988755664234337 157.988947331426 0.0580114869654989 144.658375693788 
! Gamma         !               0.355796540846365 936.781520597406 0.355792692561113 936.78480403525  
! Port Impedance342.169810817612 0.149957370193514 342.197660201482 0.150091763162049 

65.925           0.0595902029302918 -9.13910171196987 0.988740330057019 154.421549508252 0.988740330057024 154.421549508252 0.0585067788147563 137.723186438061 
! Gamma         !               0.355243092794743 939.096082545644 0.355239263801456 939.099357895752 
! Port Impedance341.71510710816  0.149360522456271 341.742914808844 0.149494926238763 

66               0.060088743773465 -9.33615046091207 0.988724874745982 150.85881723442  0.988724874745986 150.85881723442  0.0589983912152526 130.796952062826 
! Gamma         !               0.354693865316354 941.407578820614 0.354690055462118 941.410846133392 
! Port Impedance341.263750283711 0.148770719463846 341.291516624481 0.148905135471394 

66.075           0.0605835210166385 -9.53322478181204 0.98870930480924 147.300715762596 0.988709304809244 147.300715762595 0.0594863256464814 123.879609110685 
! Gamma         !               0.354148813125671 943.716031948596 0.354145022259536 943.719291273924 
! Port Impedance340.815703217196 0.148187858121237 340.843428517521 0.14832228774657 

66.15            0.0610745365773342 -9.7303206002509 0.988693626661147 143.747210756491 0.988693626661151 143.747210756491 0.0599705835285  116.971095149322 
! Gamma         !               0.353607891606955 946.021464206489 0.353604119579894 946.024715593728 
! Port Impedance340.370929340605 0.147611837278683 340.398613916215 0.147746281896492 
