! Touchstone file exported from HFSS 2020.2.0
!        Generated:      11:13:22  avr. 27, 2020
!        Design:         test
!        Project:        test_multiport
!        Setup:          Setup1
!        Solution:       Sweep
!
!Data is not renormalized
# GHZ S MA
! Terminal data exported
! Port[1] = 1
! Port[2] = 2
! Port[3] = 3
0.9                            7.09555481227531E-05 180              3.24009694848335E-06 1.35861550400216E-14 1.33986882654773E-08 -8.60820377609185E-20 
                               3.24009694848336E-06 2.43561265850155E-15 0.000489383320143255 -180             2.24118991021895E-08 -180             
                               1.33986882654773E-08 -9.19476524818277E-20 2.24118991021895E-08 -180             0.000300434795315718 180              
! Gamma         59.9337027945511 0                76.2416490168157 0                59.9339958791511 0                
! Port Impedance         0                29.2519915310951 0                57.4479277931112 0                58.4338440486349 
0.95                           6.62884478478398E-05 179.999999999974 3.37604010589216E-06 4.31561648429196E-16 1.49485757773226E-08 4.44850218735986E-16 
                               3.37604010589216E-06 -5.00016821827952E-15 0.000487388857245641 -180             2.38742038767363E-08 -180             
                               1.49485757773226E-08 -7.24891274584258E-15 2.38742038767363E-08 -180             0.000300016853831964 -180             
! Gamma         59.5937705794175 0                75.9747182028992 0                59.5940653358095 0                
! Port Impedance         0                31.0532292375506 0                60.8525252506356 0                62.031993597952  
1                              6.1043197399524E-05 180              3.52337472274836E-06 -3.65243317172497E-25 1.67878485333276E-08 2.51860926558449E-15 
                               3.52337472274836E-06 -1.0446235839024E-24 0.000485261239111523 180              2.54895893738145E-08 -180             
                               1.67878485333276E-08 5.92108099995085E-15 2.54895893738144E-08 -180             0.000299640962397763 179.999999999982 
! Gamma         59.2333518374644 0                75.6923396655075 0                59.2336483873597 0                
! Port Impedance         0                32.8865040088331 0                64.2942484111944 0                65.6941390584546 
1.05                           5.51362371327249E-05 -179.99999999991 3.68227094041346E-06 1.22737975019389E-15 1.8979925443969E-08 2.35399345485724E-15 
                               3.68227094041346E-06 6.58129749078354E-15 0.000482993580855325 180              2.72645766983246E-08 -180             
                               1.8979925443969E-08 2.05671646621243E-14 2.72645766983244E-08 -180             0.000299320724207276 179.999999999969 
! Gamma         58.852070182377  0                75.3943398332339 0                58.8523686535041 0                
! Port Impedance         0                34.7545412281207 0                67.7757859251604 0                69.4257245004843 
1.1                            4.84669162118534E-05 -179.999999999756 3.85264090088552E-06 -1.68311263585256E-14 2.16029434395528E-08 -7.27171166453716E-15 
                               3.85264090088553E-06 -5.65386697355021E-15 0.000480577552948946 179.999999999999 2.92015379621895E-08 -180             
                               2.16029434395528E-08 -1.46757077141333E-15 2.92015379621894E-08 180              0.000299071749962021 -179.999999999998 
! Gamma         58.4495173326867 0                75.0805327003061 0                58.4498178594297 0                
! Port Impedance         0                36.6602774261066 0                71.2999614905141 0                73.2326157632712 
