! Touchstone file exported from HFSS 2020.2.0
!        Generated:      11:10:05  avr. 27, 2020
!        Design:         test
!        Project:        test_multiport
!        Setup:          Setup1
!        Solution:       Sweep
!
!Data is not renormalized
# GHZ S MA
! Terminal data exported
! Port[1] = 1
! Port[2] = 2
! Port[3] = 3
! Port[4] = 4
! Port[5] = 5
! Port[6] = 6
! Port[7] = 7
! Port[8] = 8
! Port[9] = 9
! Port[10] = 10
! Port[11] = 11
! Port[12] = 12
0.9                            0.000186502883547046 179.999999999944 3.10657176111734E-06 -1.24981924339617E-14 1.2500593010927E-08 9.98629524508346E-15 7.10678300394148E-07 9.6360740395622E-15 
                               3.74079204550943E-08 9.88169498339594E-15 2.05018401606806E-06 -180             9.07390938154582E-08 -180             2.25773384963027E-10 1.43669714793787E-14 
                               2.88142860056536E-07 1.0274668196126E-14 4.29521251963385E-08 9.90554416901549E-15 1.690047913663E-06 1.14451022235889E-14 5.83864164791116E-07 9.93998839257291E-15 
                               3.10657176111735E-06 9.89361745403436E-15 0.000345210289076858 -179.999999999957 2.13636658161474E-08 180              5.55378842449492E-08 180              
                               1.1434143640869E-07 180              5.70018263407509E-07 -1.15047952317245E-14 4.84155957560591E-08 -1.31114230229385E-14 8.21516558684767E-11 180              
                               2.0818901690654E-07 180              1.12074146190374E-07 180              5.97018084516082E-07 180              4.09005496018723E-08 180              
                               1.2500593010927E-08 1.68135550035243E-14 2.13636658161474E-08 -180             0.000265014031148425 180              5.57032537574556E-09 3.02846406391415E-20 
                               3.39291289553185E-09 180              2.62419722430915E-09 -2.73756759593934E-19 4.08989071846447E-10 -1.01246200289717E-19 6.26720435793281E-13 -180             
                               9.01570061630046E-10 180              2.21637425638196E-09 180              2.69446864106426E-09 180              4.21409041544281E-09 3.3141671715654E-20 
                               7.10678300394147E-07 1.69613324598553E-14 5.55378842449491E-08 -180             5.57032537574557E-09 9.11371008195021E-20 0.000124504484122268 180              
                               2.59600796516515E-07 180              2.34987843066903E-06 -180             1.58261551519825E-07 -1.19506533164603E-20 8.96177266585938E-11 180              
                               6.94254454950418E-08 180              3.03954060081043E-08 7.88233648138299E-20 2.99310199930639E-07 180              3.21988162064442E-06 2.34637694880853E-21 
                               3.74079204550944E-08 2.26484250125048E-14 1.1434143640869E-07 180              3.39291289553185E-09 -180             2.59600796516516E-07 180              
                               0.000721698567478279 -180             4.47483264993114E-08 -2.32475711381977E-20 1.64581043145492E-09 -180             6.16726260239985E-13 -180             
                               1.90998779150576E-09 -180             5.03958639310869E-09 -2.26502781310531E-20 2.69271834672951E-08 2.65729284949189E-20 2.60905327569088E-08 1.65735788750167E-20 
                               2.05018401606806E-06 -180             5.7001826340751E-07 -1.04559397159947E-14 2.62419722430915E-09 -2.37388512377715E-19 2.34987843066903E-06 -180             
                               4.47483264993114E-08 -3.53098573747077E-20 0.000277440192357647 180              6.63103358118294E-08 7.5825286195361E-20 4.88195970618641E-10 180              
                               9.03502088298073E-08 -1.74592120031069E-19 2.68679225833425E-08 -180             3.82361120135915E-07 -180             2.53186319057692E-07 -1.32428499993602E-19 
                               9.07390938154582E-08 -180             4.84155957560592E-08 -2.35390342744007E-14 4.08989071846447E-10 -4.82441346072385E-21 1.58261551519825E-07 -8.10494279222676E-21 
                               1.64581043145492E-09 180              6.63103358118293E-08 5.21784383507033E-20 0.00104504725319066 180              1.57665550780443E-11 -180             
                               1.34125830015565E-08 -2.52644991661922E-20 1.53845423343842E-09 180              3.362911609219E-07 -180             2.70107871428734E-07 -3.98833639516935E-21 
                               2.25773384963026E-10 2.06034615672977E-14 8.21516558684767E-11 180              6.2672043579328E-13 -180             8.96177266585937E-11 -180             
                               6.16726260239986E-13 -180             4.88195970618641E-10 -180             1.57665550780443E-11 -180             0.00140769776667926 -179.999999999998 
                               9.17895534729406E-12 -180             2.80008496404776E-12 1.5561998989951E-15 5.21329879604115E-11 1.82279552211342E-15 1.25365680482891E-10 -180             
                               2.88142860056537E-07 1.87266712616046E-14 2.08189016906539E-07 180              9.01570061630041E-10 -180             6.94254454950418E-08 180              
                               1.90998779150576E-09 -180             9.03502088298072E-08 -9.34299380692721E-20 1.34125830015565E-08 -1.79777045657648E-20 9.17895534729406E-12 -180             
                               0.00165693443360238 180              2.69208115215297E-09 -180             3.10316355308377E-07 180              8.38511899928265E-08 180              
                               4.29521251963384E-08 1.87113414415091E-14 1.12074146190374E-07 180              2.21637425638195E-09 -180             3.03954060081044E-08 1.56418434501696E-20 
                               5.03958639310866E-09 -2.4426400179515E-20 2.68679225833425E-08 -180             1.53845423343841E-09 -180             2.80008496404775E-12 1.08970122627094E-15 
                               2.69208115215296E-09 -180             0.00120117296581412 -180             5.09276370414773E-08 180              2.45970600763986E-07 180              
                               1.690047913663E-06 2.60659520114053E-14 5.97018084516084E-07 -180             2.69446864106426E-09 180              2.99310199930641E-07 180              
                               2.69271834672951E-08 6.80834799143754E-20 3.82361120135914E-07 -180             3.362911609219E-07 -180             5.21329879604114E-11 9.32821742421951E-16 
                               3.10316355308377E-07 180              5.09276370414774E-08 180              0.0004886660029082 180              2.17766609122444E-06 1.16712471373995E-20 
                               5.83864164791115E-07 1.72602913596895E-14 4.09005496018721E-08 -180             4.21409041544281E-09 5.38598936089778E-20 3.21988162064442E-06 2.21440285003215E-21 
                               2.60905327569088E-08 3.52142429761871E-20 2.53186319057691E-07 -9.28705190341343E-20 2.70107871428734E-07 -4.19828036757502E-21 1.25365680482891E-10 180              
                               8.38511899928263E-08 180              2.45970600763987E-07 180              2.17766609122444E-06 9.64959179798596E-21 0.00097717949009446 180              
! Gamma         59.9338040487771 0                76.2426172701839 0                59.9340018325797 0                103.007078799988 0                76.2410632752604 0                76.2412528326598 0                76.2414348555358 0                103.007358797142 0                103.007293925108 0                76.2411333998179 0                76.2412013780756 0                103.007076980524 0                
! Port Impedance         0                29.2414983087792 0                57.3158830149807 0                58.4339501116571 0                28.3625364564691 0                57.473048184282  0                28.7435038312167 0                57.412199736686  0                56.6846042371035 0                56.6984524673299 0                57.4742610312247 0                28.7421911791252 0                28.3638678035722 
0.95                           0.000183793564512147 180              3.23723007873872E-06 9.61906964447475E-15 1.3942688518388E-08 4.53070495014924E-15 7.86963819063968E-07 2.82998462662323E-15 
                               4.16365441418118E-08 -7.9395724584901E-15 2.21849288443177E-06 180              9.89347044506107E-08 180              2.4436876620665E-10 -2.09556453967883E-20 
                               2.81689809655097E-07 -2.74442038877043E-20 4.79548676442083E-08 -6.00218992002524E-20 1.83550949939526E-06 -2.440745253683E-20 6.46233167095643E-07 -1.29845268511953E-14 
                               3.23723007873872E-06 6.48614780693976E-15 0.000343170797254322 179.999999999987 2.27478887875399E-08 -180             6.00394882242278E-08 180              
                               1.23586710626742E-07 -180             6.18365102995746E-07 -1.96755551270662E-15 5.30152004671558E-08 6.8878523688556E-15 8.94700075772899E-11 -180             
                               2.15924551818425E-07 -180             1.21085573172058E-07 -180             6.47083280961092E-07 -180             4.37569534467761E-08 180              
                               1.39426885183879E-08 7.29912837789942E-15 2.274788878754E-08 -180             0.000264592348561576 179.999999999969 6.29102716921835E-09 2.60509173822799E-14 
                               3.78028947839008E-09 -180             3.01564687082202E-09 -2.18137511241398E-15 4.73934459573992E-10 7.09589770073005E-15 7.2340925236745E-13 -180             
                               1.00311171483994E-09 -180             2.48299638300326E-09 -180             3.09420979547237E-09 -180             4.78968391046679E-09 1.3505800210228E-15 
                               7.86963819063968E-07 5.86387807723574E-15 6.00394882242292E-08 -180             6.29102716921835E-09 1.51894351698934E-14 0.000114033876874586 179.999999999926 
                               2.76516468704399E-07 180              2.48796479446993E-06 180              1.71722928139179E-07 5.73934967999736E-15 9.88533761142913E-11 -180             
                               7.57234793154624E-08 -180             3.37839328668031E-08 5.81505551292968E-15 3.28715274538738E-07 -180             3.41419907277515E-06 9.17674726112687E-16 
                               4.16365441418118E-08 -4.56872613297953E-17 1.23586710626742E-07 -180             3.78028947839008E-09 -180             2.76516468704399E-07 -180             
                               0.000717534058160441 -179.999999999998 4.7791531239739E-08 -1.05911724353118E-14 1.85068116853006E-09 -180             6.37296893834992E-13 180              
                               2.09592445155001E-09 -180             5.57379420508804E-09 -2.96487474384623E-16 3.01109461715634E-08 2.34465213963342E-16 2.88457417503275E-08 3.32228060782264E-15 
                               2.21849288443177E-06 180              6.18365102995746E-07 9.88281261726797E-15 3.01564687082201E-09 -3.1252035255164E-15 2.48796479446993E-06 -180             
                               4.77915312397391E-08 -1.38768522931584E-14 0.000274822961871868 -179.999999999978 7.20578671167314E-08 -2.50085461558168E-15 5.25573466988863E-10 180              
                               9.67942048701943E-08 -2.02436513150178E-15 3.00972521044564E-08 180              4.15213367577699E-07 180              2.77988046142001E-07 -2.85676196725506E-15 
                               9.89347044506108E-08 180              5.30152004671557E-08 1.43519737022552E-14 4.73934459573993E-10 1.31407515741165E-15 1.71722928139179E-07 2.95600012701141E-15 
                               1.85068116853006E-09 180              7.20578671167314E-08 -1.23641514957662E-14 0.00103909101686872 -180             1.72521539498806E-11 180              
                               1.42084568624337E-08 -1.81199894405012E-20 1.72834079582214E-09 180              3.58645440626991E-07 -180             2.89518270481731E-07 -3.39881186324143E-15 
                               2.44368766206649E-10 -1.06554472696418E-20 8.94700075772899E-11 -180             7.23409252367449E-13 -180             9.88533761142915E-11 180              
                               6.37296893834993E-13 -180             5.25573466988864E-10 180              1.72521539498806E-11 180              0.00140360346921797 -180             
                               9.65407559172312E-12 180              3.13754730446658E-12 -6.1056570822548E-20 5.68879071807723E-11 2.66749234099604E-20 1.37593433944062E-10 180              
                               2.81689809655097E-07 -3.23204648293301E-20 2.15924551818426E-07 -180             1.00311171483994E-09 180              7.57234793154625E-08 -180             
                               2.09592445155001E-09 180              9.67942048701944E-08 -7.79628763936317E-15 1.42084568624337E-08 -5.61573864685789E-22 9.65407559172311E-12 180              
                               0.00165332921343242 180              2.97149081629939E-09 180              3.27226688065521E-07 180              9.04921136290887E-08 180              
                               4.79548676442083E-08 -1.38950298573696E-19 1.21085573172058E-07 -180             2.48299638300326E-09 -180             3.37839328668031E-08 1.91503642913833E-15 
                               5.57379420508805E-09 -6.94566121304954E-15 3.00972521044564E-08 180              1.72834079582214E-09 -180             3.13754730446658E-12 6.05448702496028E-20 
                               2.97149081629939E-09 180              0.00119383976438947 180              5.4565768688685E-08 180              2.62059118194884E-07 -180             
                               1.83550949939526E-06 -2.25008420317604E-20 6.47083280961094E-07 -180             3.09420979547237E-09 -180             3.28715274538737E-07 -180             
                               3.01109461715634E-08 -1.38622176957816E-14 4.15213367577699E-07 180              3.58645440626992E-07 -180             5.6887907180772E-11 5.86110629050087E-20 
                               3.27226688065521E-07 180              5.4565768688685E-08 180              0.000483851216132814 -180             2.30739568279618E-06 -1.46703199335656E-14 
                               6.46233167095642E-07 -1.30217282939704E-14 4.37569534467765E-08 180              4.78968391046679E-09 -1.49137211460128E-14 3.41419907277516E-06 4.31587019963504E-15 
                               2.88457417503275E-08 -1.65823406412871E-14 2.77988046142001E-07 -2.18536960821534E-14 2.89518270481731E-07 -1.42680910526344E-14 1.37593433944062E-10 180              
                               9.04921136290885E-08 180              2.62059118194884E-07 180              2.30739568279618E-06 -1.46217405867327E-14 0.000966251767605675 -179.999999999983 
! Gamma         59.5938724112121 0                75.9756898581012 0                59.594071323197  0                102.809664157187 0                75.9741304033741 0                75.9743206267764 0                75.9745032891796 0                102.809944691989 0                102.809879695388 0                75.9742007743119 0                75.9742689914086 0                102.809662334229 0                
! Port Impedance         0                31.0420886257256 0                60.712637974248  0                62.0321077202416 0                29.9957192759732 0                60.8791386759057 0                30.4469643034855 0                60.8146819090664 0                59.9486388501565 0                59.9632836181112 0                60.8804234144407 0                30.4455740672389 0                29.9971272759436 
1                              0.000180671011795863 179.999999999983 3.37872157606157E-06 4.39807113303442E-15 1.56532263421899E-08 4.83158760647941E-15 8.77480812880347E-07 -1.02257002663201E-17 
                               4.67094607845603E-08 4.15681764323636E-15 2.41333629306109E-06 -180             1.08463352562004E-07 -180             2.65732920460325E-10 2.45706250078095E-14 
                               2.72622066271382E-07 4.01330278904518E-15 5.39527755159024E-08 4.15841223351571E-15 2.00452930090421E-06 4.56272986199548E-15 7.2030332215704E-07 5.73452375106386E-15 
                               3.37872157606157E-06 9.50943244535581E-15 0.000340987169893614 180              2.42761696746022E-08 180              6.52535585589098E-08 -180             
                               1.34281485185725E-07 180              6.74554393645941E-07 -1.15048472276095E-19 5.84055180015472E-08 -1.08898038974085E-19 9.79715016210751E-11 -180             
                               2.24293509913721E-07 180              1.31512110536082E-07 180              7.05205041477477E-07 180              4.70201066997352E-08 -180             
                               1.565322634219E-08 5.70714664060002E-15 2.42761696746021E-08 180              0.000264209535276838 180              7.16388340574352E-09 -1.28974081025278E-14 
                               4.24113724070193E-09 180              3.49791078031211E-09 1.61821396777365E-20 5.5458331734237E-10 -7.06734892633048E-20 8.42767816388589E-13 -180             
                               1.12336503881035E-09 180              2.80216524332753E-09 180              3.58670807746081E-09 180              5.490588229894E-09 1.88258428907281E-15 
                               8.77480812880348E-07 1.2526984702268E-14 6.52535585589104E-08 -180             7.16388340574354E-09 5.2588974343981E-16 0.000102803596894963 179.999999999949 
                               2.95761024566851E-07 -180             2.64443191794211E-06 -180             1.87344019107095E-07 1.28913096645247E-15 1.09614997169784E-10 180              
                               8.30795701107688E-08 -180             3.78120848774434E-08 1.03566641326828E-15 3.63321485430912E-07 -180             3.63416956597796E-06 1.68664732406319E-15 
                               4.67094607845603E-08 2.65145481445031E-15 1.34281485185725E-07 180              4.24113724070195E-09 180              2.95761024566851E-07 180              
                               0.00071316368236074 -180             5.12253574574697E-08 -3.57763066483341E-19 2.09803030410318E-09 180              6.55293972490785E-13 -180             
                               2.31759751788767E-09 -180             6.20478886015776E-09 5.79316397127333E-20 3.39304701069277E-08 -8.36254530953484E-20 3.21110603396531E-08 -6.6989670986502E-15 
                               2.41333629306109E-06 -180             6.7455439364594E-07 -8.28499854162584E-20 3.49791078031213E-09 2.20993126452111E-20 2.64443191794211E-06 180              
                               5.12253574574698E-08 -2.78363230065316E-19 0.000272018745600011 -180             7.87440159159419E-08 1.26156587743895E-19 5.68118952000535E-10 -180             
                               1.04195500991179E-07 -7.41075954296189E-20 3.39741120764365E-08 180              4.53329059978402E-07 -180             3.07166603186935E-07 -2.15849564112384E-16 
                               1.08463352562004E-07 -180             5.84055180015471E-08 -6.7412630296996E-20 5.5458331734237E-10 -6.45624965321779E-20 1.87344019107096E-07 -2.79032719107082E-15 
                               2.09803030410318E-09 180              7.87440159159422E-08 7.50650321479021E-20 0.00103285713824708 -180             1.89922692080313E-11 -180             
                               1.51029387747645E-08 -3.40307613473028E-21 1.95694366684544E-09 180              3.84045313867303E-07 -180             3.11736743612667E-07 -8.35752878674458E-16 
                               2.65732920460324E-10 1.55370441913381E-14 9.7971501621075E-11 -180             8.4276781638859E-13 -180             1.09614997169784E-10 -180             
                               6.55293972490785E-13 -180             5.68118952000536E-10 -180             1.89922692080313E-11 -180             0.00139930943633448 179.999999999999 
                               1.01783633976972E-11 -180             3.54276819616249E-12 3.60180238846099E-15 6.24258351575344E-11 3.87252590697758E-15 1.51927183778912E-10 -180             
                               2.72622066271382E-07 1.04245321288693E-15 2.24293509913721E-07 180              1.12336503881035E-09 180              8.30795701107687E-08 180              
                               2.31759751788767E-09 -180             1.04195500991179E-07 -2.60697210808395E-20 1.51029387747645E-08 7.61728844555544E-21 1.01783633976972E-11 -180             
                               0.00164953215721497 180              3.30181947885056E-09 -180             3.46263412373852E-07 180              9.8198965445712E-08 -180             
                               5.39527755159024E-08 1.28915659584068E-14 1.31512110536082E-07 180              2.80216524332753E-09 180              3.78120848774434E-08 -5.11354969706011E-15 
                               6.20478886015778E-09 2.9028202343608E-20 3.39741120764365E-08 -180             1.95694366684544E-09 180              3.54276819616248E-12 1.67089558547369E-14 
                               3.30181947885055E-09 180              0.00118615156541924 -180             5.86924499136E-08 180              2.80369698927539E-07 180              
                               2.00452930090421E-06 1.57932817832261E-14 7.05205041477475E-07 180              3.58670807746082E-09 180              3.63321485430912E-07 180              
                               3.39304701069277E-08 -1.35370840222444E-21 4.53329059978402E-07 -180             3.84045313867304E-07 -180             6.24258351575343E-11 2.12881174329103E-14 
                               3.46263412373852E-07 180              5.86924499136001E-08 180              0.000478738210653695 180              2.45437616217316E-06 -2.37809830499431E-15 
                               7.20303322157038E-07 4.37315116358827E-15 4.70201066997359E-08 180              5.490588229894E-09 -1.86013175477323E-15 3.63416956597796E-06 -1.17583135076609E-14 
                               3.21110603396531E-08 -1.43540961655231E-15 3.07166603186936E-07 -1.10320418157963E-15 3.11736743612666E-07 -3.39993391580006E-15 1.51927183778912E-10 -180             
                               9.81989654457119E-08 180              2.8036969892754E-07 180              2.45437616217316E-06 -1.50675542553676E-15 0.000954584841841966 179.999999999999 
! Gamma         59.2334542888767 0                75.6933149455287 0                59.2336544111783 0                102.601167255262 0                75.6917496731149 0                75.6919406061755 0                75.6921239500264 0                102.601448360139 0                102.601383231459 0                75.6918203065832 0                75.6918887781743 0                102.6011654286   0                
! Port Impedance         0                32.874704262323  0                64.146430135155  0                65.6942616646861 0                31.6386030782201 0                64.3223719059212 0                32.1690009499724 0                64.2542670876363 0                63.2320614567374 0                63.2475073452787 0                64.3237293223441 0                32.1675323202193 0                31.6400881847899 
1.05                           0.000177063641755583 179.999999999932 3.53115019754106E-06 -7.96384055558165E-15 1.76907338616106E-08 8.43875958384868E-15 9.85503510053572E-07 2.52493856393629E-15 
                               5.28375796187043E-08 2.61216819963704E-14 2.63978242856938E-06 -180             1.19582729597534E-07 -180             2.90339670541823E-10 5.15358147687373E-14 
                               2.60177157119507E-07 1.65014092716684E-14 6.11918717797913E-08 1.4245764289744E-14 2.20173821357746E-06 1.53975968841566E-14 8.08786252525078E-07 3.56282981877349E-14 
                               3.53115019754106E-06 1.24798969819501E-14 0.000338650727223316 -179.999999999959 2.5954314624265E-08 180              7.1320778559169E-08 -180             
                               1.46702432886734E-07 180              7.40146476110088E-07 -3.35309767580789E-15 6.47528766880831E-08 -1.64846887488108E-14 1.07886602569809E-10 -180             
                               2.33310014926118E-07 180              1.43625129148911E-07 180              7.72972317624077E-07 180              5.07598918306139E-08 -180             
                               1.76907338616109E-08 8.19030717431469E-15 2.59543146242647E-08 180              0.00026387830555254 -179.999999999956 8.22851799003347E-09 -6.20623054304917E-14 
                               4.79234593746184E-09 180              4.09699046194721E-09 2.63231594630501E-15 6.55606801994457E-10 -1.1185451062494E-14 9.91301099205212E-13 -180             
                               1.2664131409745E-09 180              3.18648913393729E-09 180              4.19857516644826E-09 180              6.3503685399352E-09 8.2860039302696E-16 
                               9.85503510053574E-07 2.32827549930293E-14 7.13207785591679E-08 -180             8.22851799003351E-09 -2.20815327907424E-14 9.07739171849928E-05 -179.999999999975 
                               3.17712575677211E-07 -180             2.8221840398243E-06 -180             2.05543963026997E-07 -5.77089466204953E-15 1.22201114602028E-10 180              
                               9.17122009249196E-08 180              4.26277565809322E-08 -6.44575194872778E-15 4.04255037635814E-07 180              3.88374513176367E-06 1.70435773322876E-15 
                               5.28375796187042E-08 1.7275305910659E-14 1.46702432886733E-07 180              4.79234593746188E-09 180              3.17712575677211E-07 180              
                               0.000708590671595172 179.999999999998 5.51003494679445E-08 1.50392663667997E-14 2.39876515370398E-09 -180             6.68351116096295E-13 -180             
                               2.58368017650496E-09 -180             6.95384495246548E-09 8.0538406505203E-16 3.85425578037611E-08 2.11823768329188E-16 3.60024461226224E-08 -1.62536275117791E-14 
                               2.63978242856938E-06 -180             7.40146476110086E-07 -1.92103421357144E-14 4.09699046194725E-09 4.04337310197238E-15 2.8221840398243E-06 180              
                               5.51003494679445E-08 1.9340057842145E-14 0.000269015933266928 179.999999999969 8.65553002281095E-08 3.52750538969357E-15 6.1664738889217E-10 -180             
                               1.1272706579457E-07 2.83385399272664E-15 3.86585480835151E-08 -180             4.97724758953622E-07 -180             3.41668091648404E-07 3.68563786797741E-15 
                               1.19582729597534E-07 -180             6.47528766880831E-08 -3.05942258941386E-14 6.55606801994456E-10 -3.41655731385384E-15 2.05543963026998E-07 -9.11811936097004E-15 
                               2.39876515370398E-09 -180             8.65553002281101E-08 1.7438730651551E-14 0.00102635342414263 -180             2.10398807464227E-11 -180             
                               1.61092583876975E-08 4.04968153958874E-21 2.23401961370544E-09 180              4.12974561318965E-07 -180             3.3724741595417E-07 3.23216531210241E-15 
                               2.90339670541822E-10 3.76446053278795E-14 1.07886602569809E-10 180              9.91301099205217E-13 -180             1.22201114602028E-10 -180             
                               6.68351116096294E-13 -180             6.16647388892169E-10 -180             2.10398807464228E-11 -180             0.00139481935938109 179.999999999999 
                               1.07560002612637E-11 -180             4.03252038573117E-12 7.18074159864325E-15 6.89020487012984E-11 7.63827312099158E-15 1.68806547121759E-10 -180             
                               2.60177157119508E-07 1.51108783893765E-14 2.33310014926117E-07 180              1.26641314097449E-09 -180             9.17122009249196E-08 180              
                               2.58368017650496E-09 -180             1.1272706579457E-07 1.09145490301778E-14 1.61092583876976E-08 2.12235008624055E-21 1.07560002612638E-11 -180             
                               0.00164554377124742 -180             3.69455476439126E-09 -180             3.67737108998585E-07 180              1.07183185981533E-07 -180             
                               6.11918717797911E-08 3.33661024905833E-14 1.43625129148912E-07 180              3.18648913393727E-09 180              4.26277565809324E-08 -1.19150862176352E-14 
                               6.95384495246547E-09 9.79776778213274E-15 3.86585480835151E-08 -180             2.23401961370544E-09 180              4.03252038573114E-12 3.066129005091E-14 
                               3.69455476439123E-09 -180             0.00117811545892059 -180             6.33773346923962E-08 180              3.01264686882577E-07 180              
                               2.20173821357746E-06 4.09228212686915E-14 7.7297231762407E-07 180              4.19857516644827E-09 180              4.04255037635815E-07 180              
                               3.85425578037611E-08 2.1006894246898E-14 4.97724758953621E-07 -180             4.12974561318965E-07 -180             6.89020487012986E-11 3.82237846675795E-14 
                               3.67737108998585E-07 180              6.33773346923962E-08 180              0.00047331631799285 180              2.62131538679351E-06 1.60256425450253E-14 