! Touchstone file exported from HFSS 2020.2.0
!        Generated:      10:22:49  avr. 27, 2020
!        Design:         test
!        Project:        test_multiport
!        Setup:          Setup1
!        Solution:       Sweep
!
!Data is not renormalized
# GHZ S MA
! Terminal data exported
! Port[1] = 1
! Port[2] = 2
! Port[3] = 3
! Port[4] = 4
! Port[5] = 5
! Port[6] = 6
! Port[7] = 7
! Port[8] = 8
! Port[9] = 9
! Port[10] = 10
! Port[11] = 11
! Port[12] = 12
! Port[13] = 13
! Port[14] = 14
! Port[15] = 15
! Port[16] = 16
! Port[17] = 17
! Port[18] = 18
! Port[19] = 19
! Port[20] = 20
0.9                            0.000248370963387035 180              3.11478370855249E-06 -3.03313730588659E-21 1.17073000734769E-08 -8.215901722496E-16 6.98982527755726E-07 -9.41664198839993E-20 
                               3.87877989816406E-08 1.23988381249613E-20 2.02377415590202E-06 -180             9.28910330874389E-08 180              2.3601510917531E-10 1.13854766245515E-20 
                               3.92068559535861E-07 -4.52247175183949E-21 4.00097632035115E-08 1.25656510232056E-20 1.65930888979983E-06 1.50376531183842E-20 5.73609499294238E-07 -8.73743653347291E-20 
                               5.98113427804922E-09 -3.21597471371494E-20 6.34082165483338E-07 180              1.12773585331301E-06 -180             1.18511781540575E-07 180              
                               4.25172921445051E-08 180              9.88452627245324E-11 180              1.11098963108965E-07 8.86052211545213E-15 3.5008296211831E-08 4.02631640141207E-15 
                               3.11478370855249E-06 -3.81534230308946E-21 0.00050990018079633 180              1.98943750408677E-08 180              5.99835944171926E-08 180              
                               1.14468098181224E-07 -180             5.68230474765957E-07 3.65427553164182E-20 5.10521916337523E-08 -2.72843701470462E-21 8.23699769048876E-11 -180             
                               2.08797440496829E-07 180              1.06273168858948E-07 -180             5.91258548447354E-07 -180             3.84936289484005E-08 180              
                               5.25125337974996E-09 180              4.45870317401354E-07 -6.88234590670246E-20 6.20302671366293E-07 1.69043857707634E-14 2.05655090027886E-07 -3.3971189874922E-21 
                               4.25407442087638E-08 -1.55002913906149E-20 5.22861738115064E-11 -4.93428773954201E-20 1.8089615088331E-07 -180             1.20324263214462E-08 -2.0054650478701E-15 
                               1.17073000734769E-08 1.96892179407556E-15 1.98943750408677E-08 -180             0.000443727374599301 179.999999999993 5.33867740982037E-09 2.50370329605588E-15 
                               3.27611541435781E-09 -180             2.48075616921973E-09 2.28607104350001E-15 4.17450130573255E-10 2.41930998109772E-15 5.2896201063465E-13 -180             
                               8.68979160919975E-10 -180             2.04202395243201E-09 -180             2.58590381562597E-09 -180             3.84394648273285E-09 2.03750103741666E-15 
                               7.29454760784004E-11 -180             5.10724371783441E-09 2.12520363702568E-15 5.67957180827382E-09 1.82940073783264E-14 1.97499486982116E-09 2.56567049623163E-15 
                               5.99910625663374E-10 2.49757126602111E-15 4.20308518625015E-13 2.02746904423347E-15 1.88738459975226E-09 5.87053382546902E-15 6.70318206288533E-11 -6.2727772007496E-15 
                               6.98982527755725E-07 -7.48208015105845E-20 5.99835944171925E-08 180              5.33867740982036E-09 -1.68257748123612E-15 0.000554287064891579 180              
                               2.65496388765769E-07 -180             2.34508173295696E-06 180              1.72961319568657E-07 -3.38016851720579E-21 5.8530145704388E-11 -1.32555254414094E-19 
                               7.251433932827E-08 180              2.99782527541652E-08 -4.33013615158007E-20 3.02938717977389E-07 -180             3.23699330731192E-06 4.39883444205799E-20 
                               7.5023867751425E-08 7.40534465103377E-21 2.26289871363252E-06 -5.73810133525113E-20 4.70518927096712E-06 9.81045755566602E-15 8.8311341459853E-08 -180             
                               2.25012919711955E-07 -180             4.09674266913524E-09 -180             5.98118259094865E-08 7.74136160726936E-15 4.87875332407731E-09 -1.36092769313999E-14 
                               3.87877989816405E-08 1.72203222256682E-20 1.14468098181224E-07 -180             3.2761154143578E-09 180              2.6549638876577E-07 -180             
                               0.00225407364143737 180              4.53689829475007E-08 -2.58121405033046E-20 1.621075424165E-09 180              3.12669039031203E-12 180              
                               1.93223949293246E-09 -180             4.97415139567394E-09 3.30782009775663E-21 2.74410033624857E-08 3.47860364706042E-20 2.78399249399101E-08 -6.8726078859634E-20 
                               9.58656351570475E-10 -7.63695601734016E-21 4.7515229316525E-08 180              3.13585091548817E-08 -180             1.12037322490241E-08 3.73604727117873E-21 
                               5.37704443286567E-09 180              7.66087544483657E-11 180              1.39423141436447E-09 -180             1.0455295389821E-10 180              
                               2.02377415590202E-06 -180             5.68230474765958E-07 2.80170603447498E-20 2.48075616921974E-09 2.46926783147409E-15 2.34508173295696E-06 180              
                               4.53689829475008E-08 -1.83353604313025E-20 0.000334481916274609 180              7.02266255825415E-08 -5.04068520618311E-21 2.46539389261012E-10 -180             
                               9.34488096975058E-08 3.24785733968277E-20 2.59813457704893E-08 -180             3.83627787508826E-07 -180             2.552050142164E-07 3.37543414585696E-19 
                               2.79274694231317E-09 180              5.66306396245318E-07 -1.38459235854146E-19 1.96952599613097E-06 1.37720368415961E-14 1.96307764926809E-08 -180             
                               1.05102765555285E-08 -1.60184874362147E-19 1.2964585556017E-10 -5.10649798906399E-20 1.1315696432392E-08 -180             1.29863258112927E-09 180              
                               9.28910330874386E-08 180              5.10521916337522E-08 -3.72341482546317E-20 4.17450130573255E-10 2.17282047216592E-15 1.72961319568657E-07 -8.29440022769079E-20 
                               1.62107542416501E-09 180              7.02266255825414E-08 -8.61506815284458E-20 0.00229043162921116 180              2.31737184057829E-11 180              
                               1.43044233784658E-08 -2.39835106485974E-20 1.84962166145231E-09 180              3.60463595777618E-07 180              3.16355302513094E-07 -3.28396277592023E-20 
                               7.38087674088233E-10 -5.27583050768913E-20 1.30046171845458E-07 180              1.39370215458589E-08 -180             5.83148895850372E-09 180              
                               5.26849710653587E-09 180              1.33566441424255E-11 180              1.63887211690853E-09 7.12341926833973E-15 1.43485648812622E-10 -1.25322005195207E-14 
                               2.36015109175311E-10 1.24764901359817E-20 8.23699769048876E-11 -180             5.28962010634649E-13 -180             5.85301457043883E-11 -1.87276478840713E-19 
                               3.12669039031204E-12 180              2.46539389261012E-10 -180             2.31737184057828E-11 180              0.00443018414697771 180              
                               1.38329433015945E-11 -180             3.90048224931E-12 1.93340165788027E-20 7.19960601656561E-11 5.76051895037622E-20 1.19241116696695E-10 -180             
                               2.51875539943292E-13 -180             9.29107415699799E-12 180              1.77053618987685E-10 -180             5.51458992832865E-12 3.18214447643724E-20 
                               1.37974695066917E-12 1.17563547865919E-19 3.00618740105614E-15 180              5.89226206162037E-13 -1.23406116588514E-15 8.54098514655859E-14 1.13395660162003E-14 
                               3.92068559535861E-07 -5.49458220421845E-21 2.08797440496829E-07 180              8.68979160919974E-10 -180             7.25143393282698E-08 180              
                               1.93223949293246E-09 -180             9.34488096975058E-08 4.02565012810707E-20 1.43044233784657E-08 -1.76206511535689E-21 1.38329433015945E-11 -180             
                               0.00193443127259241 180              2.7627593746107E-09 -180             3.15082067653146E-07 -180             8.26149517986238E-08 180              
                               5.5094863594052E-10 180              6.42960364024489E-08 -8.64993565767914E-20 1.11673087622588E-07 1.70120050925592E-14 1.11397359181591E-08 -1.14045282653672E-20 
                               4.26594970246874E-09 -2.80199752176406E-20 7.78045336369458E-12 -6.01079975148884E-20 1.03978037364145E-08 -180             5.68282867106961E-09 180              
                               4.00097632035116E-08 1.86165866031896E-20 1.06273168858948E-07 -180             2.04202395243201E-09 180              2.99782527541653E-08 -9.20390556226008E-20 
                               4.97415139567395E-09 3.85342695914776E-21 2.59813457704893E-08 -180             1.84962166145231E-09 180              3.90048224931001E-12 2.82083440072008E-20 
                               2.7627593746107E-09 -180             0.00153814135450592 180              4.86275020275411E-08 180              2.41401868938777E-07 -180             
                               9.11832541336004E-10 -8.60224215992826E-21 4.95931786084319E-08 180              2.97444174495878E-08 -180             4.46619241610347E-08 6.41447720084998E-22 
                               1.55128417443768E-08 180              5.92905700643572E-12 2.60605108539789E-20 4.1225056365011E-08 5.14380733669325E-15 8.61662396928221E-10 -4.94006553250364E-15 
                               1.65930888979983E-06 2.1367657991075E-20 5.91258548447356E-07 -180             2.58590381562598E-09 180              3.0293871797739E-07 -180             
                               2.74410033624858E-08 3.52552151062918E-20 3.83627787508826E-07 -180             3.6046359577762E-07 180              7.19960601656562E-11 7.50585983542795E-20 
                               3.15082067653146E-07 -180             4.86275020275413E-08 180              0.000938457661044056 180              2.16290312007905E-06 -4.68789095651616E-20 
                               2.36477594368342E-09 -1.63847303047705E-19 5.90198086794491E-07 180              1.66783403334251E-06 -180             2.28753835064224E-08 9.45531233949015E-20 
                               1.1749475541837E-08 180              7.16769244356489E-11 1.08232085357354E-19 6.1621762175353E-08 -180             1.19912118736059E-08 180              
                               5.73609499294236E-07 -1.11185099647744E-19 3.84936289484006E-08 180              3.84394648273285E-09 8.16935248700507E-15 3.23699330731192E-06 7.44717515495295E-20 
                               2.78399249399102E-08 -6.24375578270706E-20 2.552050142164E-07 4.377988544409E-19 3.16355302513094E-07 -2.3516206366076E-21 1.19241116696695E-10 -180             
                               8.26149517986238E-08 180              2.41401868938777E-07 -180             2.16290312007905E-06 -4.18429054574806E-20 0.00265091452669464 180              
                               4.66839606520842E-08 1.48860781756299E-20 2.26212480671576E-06 -7.29305564636736E-20 3.39682639922881E-06 1.66119619592952E-14 1.1373486758572E-07 -180             
                               1.00559560201954E-06 -180             1.64997869090233E-10 -180             9.94288131549722E-08 180              6.05658093648417E-09 180              
                               5.98113427804923E-09 -3.53418387291268E-20 5.25125337974997E-09 180              7.29454760784004E-11 -180             7.5023867751425E-08 1.04908161538624E-20 
                               9.58656351570477E-10 -5.98367789306701E-21 2.79274694231317E-09 180              7.38087674088234E-10 -3.3141376709676E-21 2.51875539943292E-13 -180             
                               5.50948635940522E-10 180              9.11832541336006E-10 -5.91408893404539E-21 2.36477594368341E-09 -1.25937468376748E-19 4.66839606520842E-08 1.27581853707773E-20 
                               0.000642048154153252 180              3.29663751661621E-08 -1.6443934572324E-20 1.27126499720569E-08 1.46900173392483E-14 1.05853111053099E-09 -1.19310591835511E-20 
                               8.34092237420982E-11 -1.39647278781824E-19 1.04540433568022E-11 -4.37511577317365E-21 1.36900651597868E-10 2.3014771523765E-15 1.04427163562796E-11 2.96544732434419E-15 
                               6.34082165483339E-07 180              4.45870317401356E-07 -1.23303876493935E-20 5.10724371783441E-09 3.66061437485477E-15 2.26289871363252E-06 -1.3410266750896E-20 
                               4.7515229316525E-08 180              5.66306396245321E-07 -3.98077221671965E-20 1.30046171845458E-07 180              9.29107415699793E-12 180              
                               6.42960364024489E-08 -1.9539116853551E-20 4.95931786084318E-08 180              5.9019808679449E-07 180              2.26212480671575E-06 -1.2627376358477E-20 
                               3.29663751661622E-08 -3.68838380639309E-21 0.000776261541694523 180              3.08220744369663E-06 -180             7.36538915258658E-08 180              
                               9.99857907339163E-08 180              3.80269474114372E-10 180              4.22290078411029E-10 -4.97137226347003E-14 2.15502819150322E-10 -180             
                               1.12773585331301E-06 -180             6.20302671366294E-07 1.39371554855594E-14 5.67957180827382E-09 9.19336029702146E-15 4.70518927096711E-06 1.31526548283382E-14 
                               3.13585091548816E-08 -180             1.96952599613098E-06 1.47732728182917E-14 1.39370215458593E-08 -180             1.77053618987685E-10 -180             
                               1.11673087622588E-07 1.471037772855E-14 2.97444174495879E-08 -180             1.66783403334251E-06 -180             3.3968263992288E-06 1.37885259353043E-14 
                               1.27126499720569E-08 1.41629543175861E-14 3.08220744369663E-06 -180             0.000384526511448824 179.999999999962 7.36428346947247E-08 -180             
                               6.67464120436101E-08 -180             2.5657965424089E-10 -180             1.35772877446703E-08 1.36219788955448E-14 1.12221117877245E-09 1.60322462916268E-15 
                               1.18511781540575E-07 180              2.05655090027886E-07 -2.72043482175621E-21 1.97499486982116E-09 1.46447388185155E-14 8.83113414598529E-08 -180             
                               1.12037322490241E-08 3.13731430919879E-21 1.96307764926809E-08 -180             5.83148895850372E-09 180              5.51458992832864E-12 3.4708882099989E-20 
                               1.11397359181591E-08 -1.0757442786906E-20 4.46619241610348E-08 2.33953088743255E-22 2.28753835064222E-08 7.95366217603294E-20 1.1373486758572E-07 -180             
                               1.05853111053099E-09 -1.30511572690319E-20 7.36538915258657E-08 180              7.36428346947245E-08 -180             0.000922046926240094 180              
                               1.31352187864564E-08 180              4.40374343100674E-11 6.386185636291E-21 5.81638697660221E-08 -180             7.94589569390182E-10 180              
                               4.2517292144505E-08 180              4.25407442087637E-08 -1.68521746422239E-20 5.99910625663372E-10 -2.96043814671008E-15 2.25012919711955E-07 -180             
                               5.37704443286566E-09 180              1.05102765555285E-08 -2.27262676807447E-19 5.26849710653588E-09 180              1.37974695066917E-12 1.50626628377683E-19 
                               4.26594970246875E-09 -3.16307933824836E-20 1.55128417443768E-08 180              1.17494755418368E-08 180              1.00559560201954E-06 -180             
                               8.34092237420986E-11 -1.78636251346351E-19 9.99857907339164E-08 180              6.67464120436101E-08 -180             1.31352187864564E-08 180              
                               0.0018544355010538 180              8.5164772232115E-12 180              1.98759877010089E-09 -180             1.19832676229087E-10 180              
                               9.88452627245323E-11 180              5.22861738115063E-11 -4.46358043941448E-20 4.20308518625016E-13 -1.13249197498028E-14 4.09674266913523E-09 -180             
                               7.66087544483658E-11 180              1.2964585556017E-10 -6.0598621473143E-20 1.33566441424255E-11 180              3.00618740105612E-15 180              
                               7.78045336369461E-12 -5.69809714172092E-20 5.92905700643573E-12 1.91758834533802E-20 7.16769244356488E-11 8.84665360295441E-20 1.64997869090233E-10 -180             
                               1.04540433568022E-11 -4.66090352981688E-21 3.80269474114372E-10 180              2.56579654240891E-10 -180             4.40374343100673E-11 6.14908074829981E-21 
                               8.51647722321154E-12 180              0.00143741770500838 180              1.25473903902152E-11 -180             7.69751719671564E-13 180              
                               1.11098963108965E-07 -3.0954757833615E-15 1.8089615088331E-07 180              1.88738459975226E-09 -3.06378104258374E-15 5.98118259094864E-08 -2.40478777757006E-15 
                               1.39423141436447E-09 180              1.1315696432392E-08 180              1.63887211690853E-09 -1.48146109313895E-15 5.89226206162038E-13 -2.89997663388164E-15 
                               1.03978037364145E-08 180              4.12250563650111E-08 -2.28363552124304E-15 6.16217621753528E-08 180              9.94288131549724E-08 180              
                               1.36900651597868E-10 -2.30514443760847E-15 4.2229007841103E-10 -1.7689203291725E-15 1.35772877446703E-08 6.94538665096616E-15 5.8163869766022E-08 180              
                               1.98759877010089E-09 180              1.25473903902152E-11 180              0.000406881371884715 -179.999999999991 1.97049295876746E-09 -8.3005797771466E-15 
                               3.5008296211831E-08 -6.56177992438276E-15 1.20324263214461E-08 -6.5873263511991E-15 6.70318206288533E-11 -6.46313270512297E-15 4.87875332407729E-09 -6.40410755398039E-15 
                               1.0455295389821E-10 180              1.29863258112927E-09 180              1.43485648812623E-10 -6.86631550821318E-15 8.54098514655859E-14 -6.75448740461226E-15 
                               5.68282867106961E-09 180              8.61662396928222E-10 -7.1750818040346E-15 1.19912118736058E-08 180              6.05658093648416E-09 180              
                               1.04427163562796E-11 -6.33477584111174E-15 2.15502819150323E-10 180              1.12221117877245E-09 6.9024750344954E-15 7.94589569390181E-10 180              
                               1.19832676229087E-10 180              7.69751719671563E-13 180              1.97049295876746E-09 -2.73441790814512E-15 0.00069484677498044 -179.999999999986 
! Gamma         59.9338180997439 0                76.242613408567  0                59.9339633323415 0                103.007021544891 0                76.2410617018449 0                76.2412757130702 0                76.2419901357081 0                103.007373104579 0                103.007657411297 0                76.241132726912  0                76.2412003578034 0                103.007070698128 0                59.933773346642  0                76.2415015177857 0                59.9337251483058 0                103.007660550641 0                76.2416717166605 0                103.007403679643 0                76.2414762788223 0                103.007268928977 0                
! Port Impedance         0                29.2395434743773 0                57.3156408909725 0                58.4327534428428 0                28.3620164349906 0                57.4756959055828 0                28.7407495893642 0                57.3742389355607 0                56.6833789445864 0                56.7025014815581 0                57.4743408148062 0                28.7420968567327 0                28.3638635712756 0                58.4919808467956 0                57.4002311594134 0                29.2523114871917 0                56.6786407351958 0                57.3839860887694 0                56.678903914655  0                28.7096961939975 0                28.3616908088541 
0.95                           0.000245308085323082 180              3.24665245238598E-06 2.750193578913E-15 1.30645602545239E-08 -3.28427193310241E-14 7.73661343343577E-07 -8.0490903244723E-20 
                               4.30922432658151E-08 -6.52362887786371E-20 2.18941839763015E-06 -180             1.01205556788256E-07 180              2.55788647567621E-10 -9.23660765178727E-22 
                               3.9073203522857E-07 -1.36790234239197E-15 4.46725255166E-08 -4.39964261107377E-20 1.80216733989144E-06 3.18803316171499E-21 6.34895904019374E-07 5.68193503855072E-15 
                               6.98154741822989E-09 -9.39214216443407E-20 7.01794711509199E-07 180              1.24503779908823E-06 -180             1.28294762944657E-07 180              
                               4.79707915233376E-08 180              1.10369398657512E-10 180              1.21500253883135E-07 -4.04507809846378E-20 3.73014386780421E-08 8.34582337584948E-21 
                               3.24665245238598E-06 2.35873914770408E-15 0.00050747313068733 -179.999999999994 2.1207792023677E-08 180              6.47274627339246E-08 -180             
                               1.23701016562158E-07 -180             6.16443585325878E-07 2.57043843514174E-15 5.58823119015378E-08 -1.20981819479273E-14 8.97709665344345E-11 -180             
                               2.16319313680712E-07 -180             1.14860200928168E-07 -180             6.41008069372942E-07 -180             4.12951117900421E-08 180              
                               5.994487504411E-09 -180             4.87753070249593E-07 2.47555199774601E-15 6.86527631349278E-07 -3.20720154581726E-16 2.13007833769818E-07 2.83407629011001E-15 
                               4.66394692047104E-08 1.38777803165698E-15 5.58939438619077E-11 6.14319951923379E-15 1.91302051807515E-07 -180             1.26752270516251E-08 2.0821313592395E-15 
                               1.30645602545239E-08 -1.48172041433397E-14 2.12077920236771E-08 180              0.000443104091139013 -179.999999999966 6.03207978288204E-09 -1.49739493441552E-14 
                               3.65097742231488E-09 180              2.85441847467284E-09 -1.53463262743664E-14 4.83935192285762E-10 -2.52751444654338E-14 6.12696235097201E-13 180              
                               9.67359804141786E-10 180              2.28917712313632E-09 180              2.97205336792162E-09 180              4.37725370269641E-09 4.84271150480595E-15 
                               8.60793431964936E-11 180              5.82714280103147E-09 -1.4902145998185E-14 6.62446830705302E-09 -1.58832234717482E-14 1.96973736665168E-09 -1.50782659824015E-14 
                               6.77609897936759E-10 -1.50133161517823E-14 4.34089352126885E-13 1.43328688499183E-14 2.09678155520232E-09 -1.50806531882312E-14 7.49572037632855E-11 -1.51848245426363E-14 
                               7.73661343343577E-07 5.76573921650985E-20 6.47274627339247E-08 -180             6.03207978288205E-09 -2.83970613249236E-14 0.000542039011412698 -180             
                               2.82477434296862E-07 180              2.48263879527945E-06 -180             1.8743919253595E-07 -2.00848455685042E-14 5.89331942395457E-11 3.62634463346229E-19 
                               7.90351569176588E-08 180              3.32884038719583E-08 6.2065470187516E-19 3.32753888116379E-07 180              3.43216539897711E-06 -9.96567462365805E-15 
                               8.20204806975271E-08 -6.59386428169502E-20 2.35452787294591E-06 3.86722448860736E-20 5.03617562912846E-06 -1.60508155371386E-14 9.566335335266E-08 180              
                               2.42142445948852E-07 180              4.31586252016992E-09 -180             6.61938044913447E-08 8.13351495863301E-20 5.36518796516523E-09 4.64246044739222E-20 
                               4.30922432658152E-08 -1.60460733773298E-19 1.23701016562158E-07 -180             3.65097742231488E-09 180              2.82477434296862E-07 180              
                               0.0022399468124904 180              4.8419361284068E-08 -1.43436979524313E-20 1.82500931857778E-09 180              3.36196680239738E-12 180              
                               2.12054396993944E-09 180              5.49714621261449E-09 4.4449644535255E-20 3.06701899119836E-08 3.12346901565283E-20 3.07229130675512E-08 7.31847374040722E-15 
                               1.09116391923806E-09 2.72124450651352E-21 5.22720907331432E-08 -180             3.52740897588396E-08 180              1.21445813836169E-08 -3.66576694635284E-20 
                               5.92692982901221E-09 -180             8.09593366074454E-11 -180             1.55774729613276E-09 180              1.16665350628241E-10 -180             
                               2.18941839763015E-06 180              6.16443585325879E-07 -4.06532941622513E-15 2.85441847467284E-09 -3.34686442562149E-14 2.48263879527945E-06 -180             
                               4.8419361284068E-08 4.73848242430321E-21 0.000331629954651302 -180             7.63297829607583E-08 -1.25065616576758E-14 2.74554247974814E-10 180              
                               1.00108283475606E-07 1.45810150863083E-14 2.91025297880421E-08 180              4.1664249262578E-07 180              2.80194349706551E-07 8.00748943226173E-15 
                               3.20321552541011E-09 -180             6.1408494493786E-07 4.08995927584355E-20 2.13057480958107E-06 -5.11910118782392E-15 2.17407984724283E-08 180              
                               1.18117563942511E-08 6.03892319111616E-20 1.3997315809043E-10 -7.51151753980352E-15 1.26450848816638E-08 -180             1.43182184304636E-09 -180             
                               1.01205556788256E-07 180              5.58823119015382E-08 -9.87776945091741E-15 4.83935192285763E-10 -2.21237344175428E-14 1.8743919253595E-07 -3.76063897637816E-15 
                               1.82500931857779E-09 180              7.63297829607582E-08 -3.63479381421448E-15 0.00227172693722111 -179.999999999997 2.50607622011841E-11 180              
                               1.51399636815103E-08 -2.53270966057971E-14 2.06686031648752E-09 180              3.84109854993237E-07 180              3.38467478800849E-07 -2.09099444511395E-14 
                               8.31511910110932E-10 -3.54724107878313E-15 1.36048038416374E-07 180              1.10914200435319E-09 -1.63993736423077E-12 6.45108332691342E-09 180              
                               5.78842889988468E-09 180              1.48783565057307E-11 -180             1.8343810072825E-09 -3.81060600719063E-15 1.59816993203285E-10 -2.06856162680094E-15 
                               2.5578864756762E-10 6.10379028929289E-21 8.97709665344347E-11 -180             6.12696235097201E-13 180              5.89331942395458E-11 -1.89136826871273E-19 
                               3.36196680239738E-12 180              2.74554247974814E-10 -180             2.50607622011841E-11 180              0.00441276617801878 180              
                               1.4612056805873E-11 180              4.35073916636037E-12 -1.45164973616529E-20 7.77032523854493E-11 7.50836133067094E-20 1.31056213782908E-10 -180             
                               2.88828672910438E-13 180              1.01776599770779E-11 180              1.90804819607149E-10 -180             6.14446236436385E-12 -1.00883859768805E-20 
                               1.55697040030018E-12 -3.38311357597412E-19 2.92890392607761E-15 180              6.27006061799616E-13 6.72069866482614E-20 9.00348822874929E-14 -1.79185758511351E-19 
                               3.90732035228572E-07 3.05632555293549E-15 2.16319313680713E-07 -180             9.67359804141785E-10 180              7.90351569176589E-08 -180             
                               2.12054396993945E-09 -180             1.00108283475606E-07 1.90932912893534E-15 1.51399636815102E-08 -1.09700870507425E-14 1.46120568058729E-11 -180             
                               0.00193089444775962 180              3.04546450950002E-09 -180             3.32231942385928E-07 -180             8.92123815759793E-08 -180             
                               6.31725606944548E-10 -180             6.95405016212534E-08 2.71241456747245E-15 1.20209653689783E-07 7.75986041917036E-15 1.19553923435739E-08 2.22894867467034E-15 
                               4.7237541646139E-09 2.66947404958677E-15 8.6527770067218E-12 -3.55107117817922E-15 1.1237676861484E-08 -180             5.95832988672062E-09 -180             
                               4.46725255166E-08 -5.30623723840282E-20 1.14860200928168E-07 -180             2.28917712313631E-09 180              3.32884038719583E-08 -2.1167297863808E-19 