! Touchstone file exported from HFSS 2020.2.0
!        Generated:      11:09:00  avr. 27, 2020
!        Design:         test
!        Project:        test_multiport
!        Setup:          Setup1
!        Solution:       Sweep
!
!Data is not renormalized
# GHZ S MA
! Terminal data exported
! Port[1] = 1
! Port[2] = 2
! Port[3] = 3
! Port[4] = 4
! Port[5] = 5
! Port[6] = 6
! Port[7] = 7
! Port[8] = 8
! Port[9] = 9
! Port[10] = 10
! Port[11] = 11
! Port[12] = 12
! Port[13] = 13
! Port[14] = 14
0.9                            0.000204257184486578 -180             3.15685303547334E-06 6.31450882691837E-23 1.25180692222212E-08 9.03141069615196E-15 7.04681497694029E-07 -6.35391520214855E-23 
                               3.79816911050034E-08 -2.1906147066646E-22 2.04964136707523E-06 180              7.21220888694713E-08 180              2.71410542994223E-10 -1.43384917915117E-15 
                               2.78341597194808E-07 -2.45048026863454E-15 4.19370724200662E-08 -3.04779988883976E-14 1.67322497750899E-06 6.88570942818466E-23 5.95139819910449E-07 7.16265842346811E-22 
                               6.27972690445352E-09 -2.44876982592638E-22 6.40298690462497E-07 180              
                               3.15685303547334E-06 2.50576231901971E-22 0.000329170011394875 -180             2.04579214197633E-08 -180             5.04062630594379E-08 -180             
                               1.1353557280131E-07 180              5.63795437407097E-07 1.7128920258983E-22 3.87059227573687E-08 4.58409570833836E-22 9.86484227442277E-11 180              
                               1.95831956801857E-07 180              1.06402369030894E-07 180              5.89766031459056E-07 -180             3.81229274208843E-08 -180             
                               5.42158625081809E-09 180              4.41705519016231E-07 -1.45308430493205E-22 
                               1.25180692222212E-08 -6.29755365353742E-15 2.04579214197632E-08 180              0.000309928551080474 -179.999999999973 5.72921502043167E-09 -5.82849951542568E-15 
                               3.38504495637409E-09 180              2.6227416687839E-09 -6.24668460738696E-15 3.37865847625268E-10 -6.06767982235593E-15 7.89307488732424E-13 180              
                               9.06835633622832E-10 180              2.08361576042641E-09 180              2.73628148325893E-09 180              4.29265559903975E-09 -7.231459395012E-15 
                               8.05312236212719E-11 180              5.41583951923869E-09 -6.32054329334654E-15 
                               7.04681497694031E-07 -2.88330962407813E-22 5.0406263059438E-08 180              5.72921502043166E-09 1.576579836167E-15 0.000178620669908813 180              
                               2.63933425536978E-07 -180             2.35265394148108E-06 -180             1.29442932985238E-07 -5.41159027203596E-23 1.58088078330675E-10 180              
                               6.94484875249454E-08 -180             2.98943976675431E-08 -1.40074604850277E-15 3.00117506396265E-07 180              3.28184264730612E-06 4.5729903658024E-23 
                               7.78029150562693E-08 1.13229797788112E-24 2.23505257445316E-06 -1.06138449039818E-23 
                               3.79816911050034E-08 -4.32115970071238E-22 1.1353557280131E-07 180              3.38504495637409E-09 180              2.63933425536977E-07 -180             
                               0.00185479340068195 -180             4.48466731394172E-08 6.71086986121378E-23 1.22030554499341E-09 180              3.73912844236923E-14 179.999999999999 
                               1.97556624165075E-09 -180             4.68781139769532E-09 -3.5454994180236E-14 2.70226165625316E-08 6.9673584029923E-22 2.73497454440332E-08 1.99542878588533E-21 
                               9.86570659899763E-10 -1.8050098744325E-22 4.69033568309954E-08 180              
                               2.04964136707523E-06 180              5.63795437407098E-07 -9.22598865173835E-22 2.6227416687839E-09 -9.28354209965942E-15 2.35265394148109E-06 -180             
                               4.48466731394173E-08 -5.41389108944962E-23 0.000249124006792334 180              5.31998858921981E-08 4.8810608514228E-22 6.48891795257762E-10 -180             
                               9.02961266148263E-08 2.4624969495796E-14 2.52961089452111E-08 180              3.82450136008471E-07 -180             2.5976853313225E-07 -1.22854356059264E-21 
                               2.88739731749366E-09 -180             5.62551873018618E-07 2.31315517492635E-22 
                               7.21220888694714E-08 180              3.87059227573689E-08 -6.26203550101211E-22 3.37865847625267E-10 -1.23722951481097E-14 1.29442932985238E-07 -5.41666173077388E-23 
                               1.22030554499341E-09 -180             5.31998858921979E-08 1.73822792072187E-22 0.00112995010556738 180              1.4697165079125E-11 -180             
                               1.09311009626026E-08 7.9771640981848E-15 1.31500906693117E-09 180              2.75424284927971E-07 -180             2.44104921640321E-07 -6.48301183840689E-23 
                               5.75680202311184E-10 -7.2846771055183E-23 9.01252659968715E-08 180              
                               2.71410542994222E-10 7.69600759766105E-16 9.86484227442279E-11 -180             7.89307488732424E-13 180              1.58088078330676E-10 -180             
                               3.73912844236878E-14 -180             6.48891795257763E-10 -180             1.4697165079125E-11 -180             0.00459474215758193 -179.999999999999 
                               9.85345705271129E-12 -180             2.76194168663901E-12 -9.23464167116425E-15 5.6500592213194E-11 1.35150606528355E-15 1.56764362267682E-10 -180             
                               7.17299232130854E-13 -180             5.65192803048681E-11 9.61577319811179E-16 
                               2.78341597194808E-07 1.93854019397046E-15 1.95831956801857E-07 -180             9.06835633622835E-10 -180             6.94484875249452E-08 -180             
                               1.97556624165075E-09 -180             9.02961266148262E-08 1.89916375505338E-15 1.09311009626026E-08 2.20498367049901E-15 9.85345705271126E-12 180              
                               0.00162225637611224 -180             2.70319655433997E-09 180              3.11223662804286E-07 -180             8.61218473697395E-08 -180             
                               5.65174151241526E-10 -180             6.34954325316691E-08 1.8583744625444E-15 
                               4.19370724200662E-08 -1.05828967493217E-14 1.06402369030894E-07 180              2.0836157604264E-09 180              2.98943976675432E-08 -9.35697164076802E-15 
                               4.68781139769531E-09 -1.10007155558821E-14 2.52961089452111E-08 180              1.31500906693117E-09 180              2.761941686639E-12 -1.28677621434149E-14 
                               2.70319655433995E-09 -180             0.00181039897758073 180              4.85246807289211E-08 180              2.36470744023799E-07 180              
                               9.01527870953071E-10 -9.35923511438837E-15 4.77097250322347E-08 180              
                               1.67322497750899E-06 -6.10850815950429E-22 5.89766031459057E-07 180              2.73628148325892E-09 180              3.00117506396265E-07 180              
                               2.70226165625316E-08 3.51340375945595E-22 3.82450136008471E-07 -180             2.7542428492797E-07 -180             5.6500592213194E-11 -6.68145685015397E-15 
                               3.11223662804285E-07 -180             4.85246807289213E-08 -180             0.000488755133967511 180              2.22934456121718E-06 8.89345847829352E-23 
                               2.48829495446787E-09 1.04320527045574E-21 5.87257016018963E-07 -180             
                               5.95139819910451E-07 4.76690167261636E-22 3.81229274208836E-08 -180             4.29265559903977E-09 -1.51736298204299E-14 3.28184264730611E-06 4.69740843277703E-23 
                               2.73497454440332E-08 1.0011028614611E-21 2.59768533132251E-07 -4.77504801997039E-22 2.44104921640322E-07 -2.76076174753615E-23 1.56764362267681E-10 180              
                               8.61218473697396E-08 180              2.36470744023799E-07 180              2.22934456121718E-06 -1.44395154180023E-22 0.000838898830280765 -180             
                               5.00767305953995E-08 9.76028420503951E-23 2.2179628393746E-06 -1.22330723301138E-22 
                               6.27972690445352E-09 -4.57514039725499E-22 5.4215862508181E-09 180              8.05312236212718E-11 180              7.78029150562695E-08 -7.40179134064657E-24 
                               9.86570659899762E-10 -1.48514482894002E-22 2.88739731749366E-09 180              5.75680202311184E-10 -2.56995853784903E-23 7.17299232130857E-13 180              
                               5.65174151241526E-10 -180             9.01527870953072E-10 -2.53689945082743E-14 2.48829495446787E-09 1.30932834167052E-21 5.00767305953995E-08 1.66662886497948E-22 
                               0.000361600341324819 -180             3.41510133914319E-08 3.68244043353632E-23 
                               6.40298690462496E-07 180              4.41705519016231E-07 -3.55363946147832E-22 5.41583951923868E-09 -1.10872596797523E-14 2.23505257445316E-06 3.79897529226818E-24 
                               4.69033568309955E-08 180              5.62551873018618E-07 9.87914728014516E-25 9.01252659968715E-08 180              5.6519280304868E-11 1.76939445249332E-14 
                               6.34954325316692E-08 2.24884849107129E-15 4.77097250322347E-08 180              5.87257016018962E-07 -180             2.21796283937461E-06 -1.20032800880198E-22 
                               3.41510133914319E-08 2.02228626434696E-23 0.000767447101695073 -180             
! Gamma         59.9338063352269 0                76.2426188806571 0                59.9340073758099 0                103.007099877982 0                76.2410788579128 0                76.2412528326598 0                76.2414500936607 0                103.007311237651 0                103.007300502308 0                76.241135352991  0                76.2412013780756 0                103.007100558332 0                59.9337665526413 0                76.2414721510216 0                
! Port Impedance         0                29.2416327730053 0                57.314791351963  0                58.4339597462797 0                28.3630653615099 0                57.4738156009824 0                28.7435038312167 0                57.3897588028374 0                56.6988137615681 0                56.6970226799037 0                57.473846463764  0                28.7421911791249 0                28.3629304465152 0                58.4897704811966 0                57.401534003353  
0.95                           0.000201081281102189 -180             3.28985635640262E-06 7.53368430253385E-22 1.39619699085508E-08 -1.32535567541589E-15 7.80322839742989E-07 -1.64749530857639E-20 
                               4.22783023956751E-08 6.19684226430716E-21 2.21807854433947E-06 180              7.87694102443893E-08 180              2.93274324207335E-10 -7.85197445271972E-15 
                               2.71604969653345E-07 1.27730671555557E-21 4.68159080723518E-08 -3.80525599561318E-21 1.81761324431269E-06 -1.67036490668738E-21 6.58818548566419E-07 2.27505384838298E-21 
                               7.32806124224213E-09 -2.44556682123729E-21 7.08817917312131E-07 180              
                               3.28985635640262E-06 -1.39556111477888E-21 0.000327409136497203 180              2.17831224509173E-08 180              5.44999578275301E-08 -180             
                               1.22770659630473E-07 180              6.11617631721197E-07 -1.12408195459472E-15 4.24620054674696E-08 3.06918391262733E-21 1.07266751609264E-10 180              
                               2.0327910371492E-07 180              1.14971811916837E-07 -180             6.39132420544515E-07 -180             4.09947407209181E-08 180              
                               6.18392895593025E-09 -180             4.83175258499147E-07 2.41188140145409E-21 
                               1.39619699085508E-08 1.58265138849472E-15 2.17831224509173E-08 -180             0.000309957145491868 -179.999999999998 6.46723457723079E-09 1.86990777099621E-15 
                               3.77378594774252E-09 -180             3.01516414164561E-09 3.20021151694805E-15 3.92255374276123E-10 1.77091700470651E-15 9.09110556111915E-13 180              
                               1.00895364464291E-09 -180             2.33558232505127E-09 -180             3.14229473185867E-09 -180             4.87731510252915E-09 1.259881523706E-15 
                               9.48888976959271E-11 -180             6.17468700378118E-09 1.32529571304207E-15 
                               7.80322839742988E-07 5.86788622594384E-20 5.44999578275305E-08 -180             6.4672345772308E-09 1.83481739936898E-14 0.000168267541750922 180              
                               2.81071442633905E-07 -180             2.49063844798154E-06 -180             1.4067445319113E-07 -8.8033951719631E-21 1.72003577016335E-10 -180             
                               7.5720264383303E-08 -180             3.32087821774246E-08 1.72944165615563E-20 3.29736405916041E-07 180              3.47916212233865E-06 -1.75535657210438E-21 
                               8.50018686088816E-08 8.26889231721325E-22 2.3281430855366E-06 -5.23693111160884E-21 
                               4.2278302395675E-08 5.46493891443583E-21 1.22770659630473E-07 -180             3.77378594774251E-09 180              2.81071442633906E-07 180              
                               0.00184070888523424 -180             4.79208538199054E-08 -6.68200551519419E-15 1.37786686127496E-09 -180             3.88120235692855E-15 179.999999999974 
                               2.16770303975508E-09 -180             5.18961498426447E-09 6.11013077109098E-22 3.02298771238966E-08 1.83732064121394E-21 3.02515352707332E-08 -8.421536772079E-22 
                               1.1230098079055E-09 2.73561259268361E-22 5.16433056799263E-08 -180             
                               2.21807854433948E-06 180              6.11617631721198E-07 -2.78275050040731E-15 3.01516414164561E-09 4.21619055465965E-15 2.49063844798154E-06 180              
                               4.79208538199054E-08 -3.42075897803631E-15 0.000246672300358575 -179.999999999967 5.79702906888255E-08 -3.34595821191403E-15 6.95427096632423E-10 180              
                               9.67420513176757E-08 -2.5725431031876E-15 2.83566861502647E-08 180              4.15323077742169E-07 180              2.85194485426792E-07 -3.32488325030489E-15 
                               3.31003663421878E-09 180              6.1007865975205E-07 -3.89894289097576E-15 
                               7.87694102443892E-08 180              4.24620054674696E-08 -4.63738704320048E-21 3.92255374276123E-10 1.86608487940074E-15 1.40674453191129E-07 6.21256158361267E-21 
                               1.37786686127496E-09 -180             5.79702906888253E-08 -1.09126867419397E-14 0.00112358683587699 -180             1.61655106518581E-11 180              
                               1.15959823970452E-08 -2.5839968479073E-21 1.47582074924137E-09 180              2.94212032042675E-07 180              2.61904640833282E-07 -3.84730123401864E-22 
                               6.50009212142269E-10 1.82014705570701E-21 9.44959294690036E-08 -180             
                               2.93274324207336E-10 -1.69926579058246E-16 1.07266751609264E-10 -180             9.09110556111916E-13 -180             1.72003577016335E-10 -180             
                               3.88120235692418E-15 -180             6.95427096632423E-10 180              1.61655106518581E-11 180              0.00457650197136794 179.999999999999 
                               1.03395283511781E-11 180              3.101318912557E-12 -1.97723844197405E-16 6.19192194971669E-11 -2.81705122651916E-16 1.71697795892614E-10 -180             
                               8.12829786143815E-13 180              5.90750316443374E-11 3.44095323354923E-16 
                               2.71604969653345E-07 8.94433093013952E-21 2.03279103714921E-07 -180             1.00895364464292E-09 180              7.57202643833032E-08 180              
                               2.16770303975508E-09 -180             9.67420513176758E-08 -1.58263888170478E-14 1.15959823970453E-08 -5.33475908695761E-21 1.03395283511781E-11 180              
                               0.00161876335438727 -180             2.98172575727419E-09 180              3.28188507068319E-07 180              9.29472455570321E-08 -180             
                               6.47537388623542E-10 180              6.8661957456001E-08 -9.95691095714608E-21 
                               4.68159080723518E-08 -6.66555194590241E-21 1.14971811916837E-07 180              2.33558232505127E-09 180              3.32087821774247E-08 -9.80098757388477E-21 
                               5.18961498426445E-09 1.24247330791666E-21 2.83566861502646E-08 180              1.47582074924138E-09 180              3.10131891255701E-12 -2.61675990132425E-14 
                               2.98172575727418E-09 180              0.00179674307824485 -180             5.20327676058693E-08 -180             2.52005951250746E-07 180              
                               1.02758218588181E-09 -4.31343895139961E-22 5.2420632763269E-08 180              
                               1.81761324431269E-06 -3.01274890390656E-21 6.39132420544513E-07 180              3.14229473185867E-09 180              3.29736405916041E-07 -180             
                               3.02298771238965E-08 3.76891565825834E-21 4.15323077742169E-07 180              2.94212032042675E-07 180              6.1919219497167E-11 -9.01665035540645E-15 
                               3.2818850706832E-07 180              5.20327676058693E-08 -180             0.000483943495170447 -180             2.36177556149506E-06 2.82617809962785E-22 
                               2.85960254254349E-09 -2.74378872017677E-21 6.3652184978219E-07 180              
                               6.58818548566419E-07 5.03287737210598E-21 4.09947407209178E-08 -180             4.87731510252916E-09 -9.48945446254624E-15 3.47916212233865E-06 9.98179767470458E-22 
                               3.02515352707332E-08 -2.26684413718559E-21 2.85194485426791E-07 -9.74950210444355E-15 2.61904640833282E-07 -3.12695581001542E-22 1.71697795892614E-10 180              
                               9.2947245557032E-08 -180             2.52005951250745E-07 180              2.36177556149506E-06 2.93831006891383E-22 0.000827768756525571 -180             
                               5.49479514721582E-08 8.6013861085272E-23 2.31182598390405E-06 -4.1447668841346E-22 
                               7.32806124224212E-09 -5.55548647223301E-21 6.18392895593025E-09 180              9.48888976959273E-11 -180             8.50018686088815E-08 -5.03502355364351E-22 
                               1.1230098079055E-09 7.54640329849954E-22 3.31003663421878E-09 180              6.50009212142268E-10 1.55069945277679E-21 8.12829786143821E-13 180              
                               6.47537388623542E-10 180              1.02758218588181E-09 -5.18824126851886E-22 2.85960254254349E-09 -2.9603976646801E-21 5.49479514721582E-08 8.98562902962995E-23 
                               0.000360715902873898 -180             3.65994862198662E-08 3.20327941015037E-22 
                               7.0881791731213E-07 180              4.83175258499148E-07 -1.45025395014684E-22 6.17468700378119E-09 -7.15909695045336E-15 2.3281430855366E-06 4.50086397208817E-22 
                               5.16433056799263E-08 -180             6.10078659752048E-07 -5.5508392763453E-15 9.44959294690034E-08 -180             5.90750316443373E-11 1.57443544671994E-14 
                               6.8661957456001E-08 1.80979080800801E-23 5.24206327632691E-08 180              6.36521849782192E-07 180              2.31182598390406E-06 -5.5157287078383E-23 
                               3.65994862198662E-08 4.44063084512473E-23 0.000764001323117824 -180             
! Gamma         59.5938747107043 0                75.9756914742324 0                59.5940768980462 0                102.809685275655 0                75.9741460407756 0                75.9743206267764 0                75.9745185808425 0                102.809897041175 0                102.809886285218 0                75.9742027343472 0                75.9742689914086 0                102.809685957312 0                59.5938347011932 0                75.9745407157007 0                
! Port Impedance         0                31.0422313678409 0                60.7114816487009 0                62.0321179776276 0                29.996278637887  0                60.8799519670414 0                30.4469643034855 0                60.79090758245   0                59.9636644603899 0                59.9617714994273 0                60.8799842993365 0                30.4455740672378 0                29.996135954461  0                62.0913652040131 0                60.8033824715368 
1                              0.000197453717682428 -179.999999999955 3.43400606369583E-06 -2.0391684460157E-14 1.56744934205431E-08 -1.06268587785129E-14 8.7006042240362E-07 -2.0360292058088E-14 
                               4.74320603473982E-08 -1.09455507569344E-14 2.41308038816562E-06 180              8.65083098780535E-08 180              3.18358465852705E-10 -1.00405265290201E-14 
                               2.62234902957861E-07 -1.48139371172334E-14 5.26641776352284E-08 -1.01922540273582E-14 1.985425386684E-06 -9.81478775697756E-15 7.34445300831487E-07 -9.92625874607069E-15 
                               8.63919919363356E-09 -1.04654613630929E-14 7.90017860919523E-07 180              
                               3.43400606369583E-06 -2.23958201344645E-14 0.000325519393056029 -179.999999999967 2.32448932615614E-08 180              5.92392761627842E-08 180              
                               1.33453706986828E-07 180              6.67193069508472E-07 -8.67544283726387E-15 4.68703865699865E-08 -8.51863213155474E-15 1.17266775563162E-10 180              
                               2.11336362458741E-07 180              1.24886083566461E-07 180              6.96442313641156E-07 180              4.42904253927347E-08 -180             
                               7.11473199760409E-09 180              5.31791007690513E-07 -8.55465164462641E-15 
                               1.56744934205431E-08 9.52360744576896E-15 2.32448932615614E-08 180              0.000310048372723415 180              7.36066538466629E-09 1.35039988922013E-14 
                               4.23647912413121E-09 180              3.49879410334224E-09 -1.52457084556413E-19 4.59909684750829E-10 -4.35108282579146E-20 1.05674725949973E-12 180              
                               1.12987431554175E-09 180              2.63735990699878E-09 180              3.64254530670124E-09 180              5.58910625177979E-09 -1.42742503480864E-14 
                               1.1297729338613E-10 180              7.10104127669607E-09 -1.42708774229279E-20 
                               8.70060422403619E-07 -1.6612389123755E-14 5.92392761627836E-08 -180             7.36066538466632E-09 -3.44912007930931E-15 0.000157163710974295 -179.999999999998 
                               3.00568674127049E-07 180              2.64697047958865E-06 180              1.53722549336566E-07 -2.81123780978685E-15 1.88103672642266E-10 180              
                               8.30429800198362E-08 -180             3.71477244476412E-08 -2.60492915397565E-15 3.64603553373357E-07 180              3.70245100615866E-06 -1.21091592519271E-14 
                               9.33945817374546E-08 -2.9559786427499E-15 2.43098822187679E-06 -3.81292140338892E-15 
                               4.74320603473983E-08 -2.46521303362299E-14 1.33453706986828E-07 180              4.23647912413121E-09 180              3.00568674127049E-07 -180             
                               0.00182590615752698 -179.999999999996 5.13913251355246E-08 -1.0833896071225E-14 1.56878863539849E-09 180              4.17235036218417E-14 -1.20339114153007E-14 
                               2.39665487169487E-09 -180             5.78280621492018E-09 -1.0977569420298E-14 3.40789219281557E-08 -1.08625493936308E-14 3.36913383232718E-08 -2.91331370933159E-15 
                               1.28908384418242E-09 -1.09050617583916E-14 5.72325004741138E-08 180              
                               2.41308038816562E-06 180              6.67193069508472E-07 -2.67536735031382E-14 3.49879410334224E-09 3.59329347994235E-19 2.64697047958865E-06 -180             
                               5.13913251355246E-08 9.40042351054449E-16 0.000244042440562864 -180             6.35323695578677E-08 -1.15710694966053E-19 7.48264887031474E-10 180              
                               1.0414617720308E-07 3.95976959173392E-15 3.20332587652121E-08 180              4.53466864304185E-07 180              3.15103165078406E-07 -1.08232387027892E-15 
                               3.8296106262527E-09 -180             6.65306467317924E-07 -1.0986673148615E-19 
                               8.65083098780534E-08 180              4.68703865699863E-08 -5.91153242565444E-15 4.5990968475083E-10 9.6415287646076E-20 1.53722549336566E-07 5.45983016409064E-15 
                               1.5687886353985E-09 180              6.35323695578677E-08 -5.94632088300032E-20 0.00111691053075069 180              1.78902977998045E-11 -180             
                               1.23438801398257E-08 1.05853621335787E-15 1.66927075938923E-09 -180             3.15581437917872E-07 180              2.82290722094507E-07 7.24980424324838E-15 
                               7.39418299956522E-10 2.83339499185212E-19 9.92534543820406E-08 180              
                               3.18358465852704E-10 -1.49155054854345E-14 1.17266775563162E-10 180              1.05674725949973E-12 -180             1.88103672642266E-10 180              
                               4.17235036218368E-14 4.47839228013697E-13 7.48264887031473E-10 180              1.78902977998044E-11 180              0.00455728950974776 -180             
                               1.0873265878593E-11 -180             3.50966232485171E-12 -1.29105167740043E-19 6.82476985091738E-11 -1.4888632926533E-19 1.89177697283645E-10 180              
                               9.28091529952893E-13 180              6.1769979836857E-11 1.65672357812067E-19 
                               2.6223490295786E-07 -2.0036732341233E-14 2.11336362458741E-07 180              1.12987431554175E-09 -180             8.30429800198363E-08 180              
                               2.39665487169487E-09 180              1.0414617720308E-07 2.76553539289053E-15 1.23438801398256E-08 2.2739252315781E-15 1.0873265878593E-11 -180             
                               0.00161508446703296 179.999999999999 3.31081483619482E-09 -180             3.47287361212072E-07 -180             1.00866837609105E-07 -180             
                               7.48645435039261E-10 -180             7.4640134803288E-08 3.1657088664989E-15 
                               5.26641776352286E-08 -2.55733950924914E-14 1.24886083566461E-07 180              2.63735990699878E-09 -180             3.71477244476414E-08 -1.00826535498182E-14 
                               5.78280621492017E-09 -8.43653220926141E-15 3.20332587652122E-08 180              1.66927075938924E-09 180              3.50966232485172E-12 -2.52025394995841E-19 
                               3.31081483619481E-09 -180             0.00178239889060339 -180             5.60153949059641E-08 180              2.69689311459811E-07 180              
                               1.18125687670419E-09 6.64369401376717E-20 5.79658702127026E-08 180              
                               1.98542538668399E-06 -2.20913245965749E-14 6.96442313641155E-07 180              3.64254530670125E-09 -180             3.64603553373356E-07 -180             
                               3.40789219281557E-08 -8.91116805226197E-15 4.53466864304184E-07 180              3.15581437917871E-07 -180             6.82476985091737E-11 -1.47226269550044E-19 
                               3.47287361212072E-07 -180             5.60153949059639E-08 180              0.000478833925722011 -180             2.51180180287132E-06 -1.03445998353298E-14 
                               3.31728209476496E-09 -5.80057159342731E-19 6.937371022597E-07 -180             
                               7.3444530083149E-07 -2.68912671602862E-14 4.4290425392735E-08 -180             5.5891062517798E-09 -5.48690471614189E-15 3.70245100615865E-06 -3.79769990054008E-15 
                               3.36913383232718E-08 5.70083787585833E-15 3.15103165078406E-07 -5.68629858779457E-15 2.82290722094507E-07 -5.56046456763979E-15 1.89177697283646E-10 180              
                               1.00866837609105E-07 180              2.6968931145981E-07 180              2.51180180287132E-06 -5.774725786663E-15 0.000815875013488565 -179.999999999991 
                               6.06604512686879E-08 -5.55989373642373E-15 2.41561682715251E-06 -5.0368971284772E-15 