! Touchstone file exported from HFSS 2020.2.0
!        Generated:      11:10:32  avr. 27, 2020
!        Design:         test
!        Project:        test_multiport
!        Setup:          Setup1
!        Solution:       Sweep
!
!Data is not renormalized
# GHZ S MA
! Terminal data exported
! Port[1] = 1
! Port[2] = 2
! Port[3] = 3
! Port[4] = 4
! Port[5] = 5
! Port[6] = 6
! Port[7] = 7
! Port[8] = 8
! Port[9] = 9
! Port[10] = 10
! Port[11] = 11
0.9                            0.000222618547303655 180              2.98471005806886E-06 4.73575659338976E-15 1.24319749918366E-08 -2.28400957466679E-20 6.95878101667475E-07 3.61739308244137E-15 
                               3.31621094463587E-08 -2.58572850023929E-20 2.0057125745931E-06 180              7.29832525437346E-08 -180             3.82764436463845E-10 -2.11719706534815E-15 
                               3.45189606287641E-07 7.80641239707111E-15 4.12435413108883E-08 -3.96936105874351E-20 1.63698080537852E-06 6.51979560320323E-15 
                               2.98471005806886E-06 3.1989701111925E-15 0.000515876492058531 179.999999999991 2.37317530951767E-08 -180             6.56569605224099E-08 -180             
                               1.03732207973637E-07 -180             5.8606071169124E-07 3.12296476739098E-15 4.10734229106361E-08 3.30574124910815E-15 1.43647970708624E-10 -180             
                               1.98910074247428E-07 -180             1.11901704504081E-07 -180             6.09065113989492E-07 -180             
                               1.24319749918367E-08 1.21465588017539E-20 2.37317530951767E-08 180              0.000344950329101201 -180             5.63587868686521E-09 3.24019595722029E-15 
                               3.17870748402104E-09 -180             2.63694179075166E-09 9.86104892001345E-21 3.42219980354007E-10 1.79254993588417E-20 1.04160723492452E-12 180              
                               8.46494568669208E-10 -180             2.2912885009616E-09 -180             2.70388677047185E-09 -180             
                               6.95878101667473E-07 -2.85822356898545E-15 6.56569605224095E-08 180              5.63587868686521E-09 -1.89714488888275E-15 0.000165137985347674 179.999999999997 
                               2.38402791475356E-07 180              2.35736781224238E-06 180              1.30893825175248E-07 -2.24846087771627E-15 6.85060560465489E-11 -180             
                               6.54421167890469E-08 180              2.95059098004211E-08 -2.3671240788636E-15 2.9698841417348E-07 180              
                               3.31621094463587E-08 -4.84622808741869E-20 1.03732207973637E-07 -180             3.17870748402104E-09 180              2.38402791475355E-07 -180             
                               0.00187830927680288 -180             4.0495585128307E-08 -4.04235741412569E-20 1.1890208211389E-09 180              2.12970229811365E-12 180              
                               1.65015431806846E-09 -180             4.73263266916148E-09 2.15577779811487E-20 2.44102302151168E-08 6.57760267178505E-15 
                               2.00571257459309E-06 180              5.86060711691238E-07 5.74790371540678E-16 2.63694179075166E-09 1.56835857663149E-20 2.35736781224237E-06 180              
                               4.04955851283069E-08 -4.05544518446089E-20 0.000347909544899161 -180             5.39291351651865E-08 2.33389576188579E-20 6.51063714619457E-10 -180             
                               8.86617057015095E-08 8.38077793703353E-15 2.70446033258454E-08 180              3.79559386635523E-07 -180             
                               7.29832525437347E-08 -180             4.10734229106362E-08 3.15268193831099E-15 3.42219980354008E-10 3.9045751757273E-21 1.30893825175249E-07 1.10251023387406E-17 
                               1.1890208211389E-09 180              5.39291351651866E-08 2.87723068194192E-20 0.00121129084079652 180              2.49340285075262E-11 180              
                               1.05021783972044E-08 1.31130751200182E-14 1.47968100347867E-09 180              2.78880046328231E-07 -180             
                               3.82764436463845E-10 -5.95918917169305E-16 1.43647970708624E-10 -180             1.04160723492453E-12 180              6.8506056046549E-11 -180             
                               2.12970229811366E-12 180              6.51063714619457E-10 180              2.49340285075262E-11 180              0.00137368281609829 -179.999999999998 
                               1.78140494209195E-11 -180             5.5957647299895E-12 3.01867804759407E-17 9.96675835877714E-11 9.58209928871029E-15 
                               3.45189606287641E-07 6.65648324437896E-15 1.98910074247428E-07 -180             8.4649456866921E-10 -180             6.54421167890471E-08 -180             
                               1.65015431806846E-09 -180             8.86617057015094E-08 5.83799673268741E-15 1.05021783972044E-08 6.21967310587679E-15 1.78140494209195E-11 -180             
                               0.00150170624415225 179.999999999994 2.32831681801871E-09 -180             2.8808491071557E-07 -180             
                               4.12435413108882E-08 -3.83691985179455E-20 1.11901704504081E-07 -180             2.29128850096159E-09 180              2.95059098004212E-08 1.83713173456688E-16 
                               4.73263266916149E-09 1.38079480358672E-20 2.70446033258453E-08 -180             1.47968100347867E-09 -180             5.5957647299895E-12 4.93197497924491E-16 
                               2.32831681801871E-09 180              0.00158499417418401 180              5.04735692583285E-08 -180             
                               1.63698080537852E-06 8.37173417946679E-15 6.09065113989493E-07 -180             2.70388677047185E-09 -180             2.96988414173479E-07 -180             
                               2.44102302151168E-08 1.07005496788092E-14 3.79559386635523E-07 -180             2.78880046328231E-07 -180             9.96675835877712E-11 -5.66915405913895E-15 
                               2.88084910715571E-07 -180             5.04735692583285E-08 -180             0.00195396090292021 179.999999999995 
! Gamma         59.9338182481259 0                76.2427196453803 0                59.9338765220849 0                103.007060040404 0                76.2410617110193 0                76.2412753273013 0                76.2414796294716 0                103.007345590136 0                103.007272853016 0                76.2411333998174 0                76.2412000552585 0                
! Port Impedance         0                29.2396250412981 0                57.3275933726428 0                58.4322053582552 0                28.3623378301735 0                57.4756950041659 0                28.7407489568579 0                57.4014711154499 0                56.7004342797995 0                56.6956586290159 0                57.4742641975641 0                28.7422686029153 
0.95                           0.00021921576386108 -180             3.10852534728671E-06 1.32592359985091E-20 1.38665880501438E-08 4.06256826082923E-15 7.70401525665498E-07 2.68799397901756E-20 
                               3.69382064607209E-08 -4.73090574807823E-20 2.16972470497849E-06 180              7.96928629933123E-08 180              4.12173818893974E-10 8.36384988991458E-15 
                               3.43428716095457E-07 1.47503503813869E-15 4.60045728514078E-08 5.82236123616409E-15 1.77846404055888E-06 -2.66027662120754E-14 
                               3.10852534728671E-06 1.27643111336896E-20 0.000513663860426727 -180             2.52713390769435E-08 -180             7.06753041933882E-08 -180             
                               1.12274793300786E-07 180              6.35645104479704E-07 -1.49627265136609E-20 4.50390854818537E-08 -1.36965392710722E-14 1.55609407347513E-10 -180             
                               2.06298517676508E-07 -180             1.20896847357873E-07 180              6.60169747626231E-07 180              
                               1.38665880501438E-08 4.75739601539372E-15 2.52713390769436E-08 -180             0.000343826497374744 179.999999999988 6.36559298347805E-09 4.74388302866906E-15 
                               3.54300864165255E-09 -180             3.02978272438433E-09 4.40698872351306E-15 3.97155023367422E-10 -3.3808530785207E-15 1.19602796660821E-12 -180             
                               9.41927836331951E-10 -180             2.56463039393406E-09 -180             3.10461929948083E-09 180              
                               7.70401525665499E-07 3.70696929414024E-20 7.0675304193388E-08 -180             6.36559298347803E-09 4.06254602115033E-15 0.000155126833115027 -180             
                               2.5406994646016E-07 180              2.49567303575239E-06 -180             1.42255504686416E-07 -5.88981847860899E-16 7.69409373360773E-11 -180             
                               7.13505024953786E-08 180              3.27846992115652E-08 -2.67097529110268E-16 3.262384542847E-07 180              
                               3.69382064607211E-08 -4.89798723369441E-20 1.12274793300786E-07 180              3.54300864165255E-09 -180             2.54069946460161E-07 180              
                               0.0018663761342903 -180             4.32833976497961E-08 9.79645444084262E-21 1.34108063283658E-09 180              2.28205294492541E-12 180              
                               1.81088010749699E-09 -180             5.23477526989614E-09 1.64630804796754E-15 2.73176832174116E-08 -2.80911161152445E-14 
                               2.16972470497849E-06 180              6.35645104479703E-07 -1.57185348405424E-20 3.02978272438434E-09 4.06253828445968E-15 2.49567303575239E-06 -180             
                               4.32833976497961E-08 9.68014190335479E-21 0.000344731169661827 -180             5.87437388587861E-08 -8.48438724970909E-15 7.00564094894701E-10 -180             
                               9.49139097072737E-08 -3.4695053853268E-15 3.02717751189502E-08 -180             4.12193188633476E-07 180              
                               7.96928629933121E-08 180              4.50390854818536E-08 -6.51303468269422E-15 3.97155023367422E-10 -2.45463569612555E-15 1.42255504686416E-07 -6.89307027581664E-15 
                               1.34108063283658E-09 180              5.8743738858786E-08 -6.52031384603752E-15 0.00120360349048165 -179.999999999993 2.71130378192764E-11 180              
                               1.11406322610665E-08 -1.00846969686929E-14 1.65838345443175E-09 180              2.97846180136699E-07 180              
                               4.12173818893975E-10 1.4747701182716E-15 1.55609407347513E-10 -180             1.19602796660822E-12 -180             7.6940937336077E-11 -180             
                               2.28205294492541E-12 -180             7.00564094894702E-10 -180             2.71130378192765E-11 180              0.00137105231805612 -179.999999999999 
                               1.86976841139823E-11 180              6.23175980407314E-12 3.31658218893852E-15 1.0781458278012E-10 -3.32655640696458E-14 
                               3.43428716095456E-07 -3.36108731629244E-15 2.06298517676507E-07 180              9.41927836331948E-10 180              7.13505024953788E-08 180              
                               1.810880107497E-09 180              9.4913909707274E-08 -3.8388802289983E-15 1.11406322610665E-08 -1.07290573760537E-14 1.86976841139824E-11 -180             
                               0.00149782683639499 -179.999999999995 2.57381070500117E-09 -180             3.03906967584399E-07 180              
                               4.60045728514078E-08 1.09123958134353E-15 1.20896847357873E-07 -180             2.56463039393407E-09 -180             3.27846992115653E-08 1.84588671213798E-15 
                               5.23477526989614E-09 9.89457959227311E-16 3.02717751189503E-08 -180             1.65838345443175E-09 180              6.23175980407315E-12 4.04550344782102E-15 
                               2.57381070500117E-09 -180             0.00157473155450527 -179.999999999999 5.40331818720243E-08 180              
                               1.77846404055888E-06 -1.98344402062957E-14 6.6016974762623E-07 180              3.10461929948084E-09 180              3.26238454284699E-07 180              
                               2.73176832174115E-08 -2.00680911687938E-14 4.12193188633477E-07 180              2.97846180136699E-07 180              1.0781458278012E-10 -1.82173167580246E-14 
                               3.03906967584398E-07 180              5.40331818720243E-08 180              0.00194146015113816 -179.999999999994 
! Gamma         59.5938866915562 0                75.9757925929746 0                59.5939452979172 0                102.80964536158  0                75.974128833637  0                75.9743432004518 0                75.9745482204256 0                102.809931459623 0                102.809858582834 0                75.9742007743115 0                75.9742676639437 0                
! Port Impedance         0                31.040099996568  0                60.7250354123076 0                62.0302549585658 0                29.99550923342   0                60.8819425103254 0                30.4440460785154 0                60.8033153886417 0                59.9653802720955 0                59.9603289707119 0                60.8804267684307 0                30.4456560809155 
1                              0.00021538855097547 -179.99999999997 3.2423595318437E-06 1.02840096977046E-14 1.55684304992547E-08 -6.39336875613588E-15 8.58798605179036E-07 9.83773245643441E-15 
                               4.1470695895549E-08 -6.07943798341112E-15 2.35954306913526E-06 -180             8.75019236940799E-08 180              4.45846420416654E-10 -5.84714210899552E-15 
                               3.39740090929994E-07 -5.5824674911035E-15 5.17101108264024E-08 -6.11880332880437E-15 1.94288991108691E-06 -5.04991198582326E-15 
                               3.2423595318437E-06 -4.56685006455585E-15 0.000511313181349449 179.999999999993 2.69742100566076E-08 -180             7.64585555941197E-08 180              
                               1.22168145803296E-07 -180             6.93257738523848E-07 9.05545031678531E-15 4.96915941196961E-08 1.3290062196856E-15 1.6945199129248E-10 -180             
                               2.14290841089124E-07 -180             1.31306285153924E-07 -180             7.19494044156356E-07 -180             
                               1.55684304992547E-08 -1.34296060786675E-14 2.69742100566076E-08 -180             0.000342694073511396 180              7.24944777246243E-09 9.64180476076784E-15 
                               3.97658654027734E-09 -180             3.51368002013693E-09 7.90072442239928E-15 4.65465636539126E-10 5.37461142738591E-20 1.38581845239726E-12 -180             
                               1.05496179570459E-09 -180             2.89159472857321E-09 180              3.59827939790916E-09 -180             
                               8.58798605179034E-07 -1.38345917652452E-14 7.64585555941197E-08 180              7.24944777246243E-09 8.38431368930005E-15 0.000144379818713847 179.999999999966 
                               2.7190375244228E-07 -180             2.6523735232117E-06 -180             1.55456055382726E-07 8.8447812658145E-15 8.68247602097625E-11 -180             
                               7.82491647335946E-08 -180             3.66818521553329E-08 8.44145721547351E-15 3.60663542308577E-07 -180             
                               4.14706958955491E-08 -1.21385293946779E-14 1.22168145803296E-07 -180             3.97658654027735E-09 -180             2.7190375244228E-07 -180             
                               0.00185385660700055 180              4.64311604150421E-08 7.91061800420468E-15 1.52516520114996E-09 -180             2.4514022740734E-12 180              
                               2.00264691558824E-09 180              5.8280080597565E-09 -3.81600077966287E-21 3.08081455483599E-08 2.63211743159671E-20 
                               2.35954306913526E-06 180              6.93257738523849E-07 1.50506329185326E-14 3.51368002013692E-09 7.03235269067566E-15 2.6523735232117E-06 -180             
                               4.6431160415042E-08 7.00700038563383E-15 0.000341342615722828 179.999999999977 6.43553314980843E-08 5.92393562286448E-15 7.56949541648308E-10 -180             
                               1.02088492625997E-07 5.66568116015875E-15 3.41437144860614E-08 -180             4.50058809683866E-07 -180             
                               8.75019236940799E-08 180              4.9691594119696E-08 5.10421420230693E-15 4.65465636539127E-10 7.68260277279409E-20 1.55456055382726E-07 1.73257474016637E-14 
                               1.52516520114996E-09 -180             6.43553314980842E-08 9.36346806716148E-15 0.00119553695406005 180              2.96495567801329E-11 -180             
                               1.18589702738774E-08 2.83785936380074E-21 1.87305667599629E-09 180              3.19414161089563E-07 180              
                               4.45846420416655E-10 -1.49689650579807E-14 1.69451991292479E-10 -180             1.38581845239727E-12 -180             8.68247602097627E-11 180              
                               2.4514022740734E-12 -180             7.56949541648308E-10 -180             2.9649556780133E-11 180              0.00136829100844926 180              
                               1.96760135405207E-11 -180             6.99123772062321E-12 -2.29002821457105E-20 1.17223831113344E-10 -8.15656479602821E-20 
                               3.39740090929995E-07 1.11385221528261E-14 2.14290841089124E-07 -180             1.05496179570459E-09 180              7.82491647335945E-08 -180             
                               2.00264691558824E-09 180              1.02088492625997E-07 7.63911741643829E-15 1.18589702738774E-08 -4.39069161581078E-20 1.96760135405208E-11 180              
                               0.00149375154015197 180              2.86448110130126E-09 180              3.21725788622435E-07 180              
                               5.17101108264025E-08 -1.60385428981693E-14 1.31306285153923E-07 -180             2.89159472857321E-09 -180             3.66818521553329E-08 -6.89161633673088E-16 
                               5.82800805975651E-09 -1.09466335817541E-20 3.41437144860615E-08 -180             1.87305667599629E-09 180              6.99123772062321E-12 -2.65090802866368E-20 
                               2.86448110130126E-09 -180             0.00156395125694253 -180             5.80670401845991E-08 -180             
                               1.94288991108691E-06 -1.5851576809591E-14 7.19494044156355E-07 -180             3.59827939790916E-09 -180             3.60663542308577E-07 -180             
                               3.080814554836E-08 5.38074013175475E-20 4.50058809683866E-07 180              3.19414161089564E-07 180              1.17223831113344E-10 -1.08617042284742E-19 
                               3.21725788622435E-07 -180             5.80670401845991E-08 -180             0.00192822708500673 -180             
! Gamma         59.2334686561124 0                75.6934180636554 0                59.2335276190754 0                102.60114842146  0                75.6917480975217 0                75.6919632640652 0                75.6921690488943 0                102.601435100885 0                102.601362076003 0                75.6918203065825 0                75.6918874457574 0                
! Port Impedance         0                32.8725982173971 0                64.1595209306574 0                65.692298868329  0                31.6383815551681 0                64.325334493956  0                32.1659175781018 0                64.2422553472922 0                63.2497196455917 0                63.2443909449182 0                64.3237328660309 0                32.1676189740862 
1.05                           0.00021107281364517 -179.999999999944 3.38621658975287E-06 1.99139347097339E-14 1.75958533503952E-08 -1.59013725820881E-14 9.64253708353668E-07 1.92225521335939E-14 
                               4.69491080983341E-08 -1.10635195493511E-14 2.58008581445706E-06 -180             9.66242753678285E-08 180              4.84495590128609E-10 -2.26841543973685E-14 
                               3.33480217307219E-07 -9.2048006645432E-15 5.85932702236862E-08 -1.67909120006497E-14 2.13477139813654E-06 3.11495230028562E-14 
                               3.38621658975287E-06 -6.71710652657072E-15 0.00050881876995766 179.999999999983 2.88485543002756E-08 180              8.31512071286009E-08 -180             
                               1.33672316320731E-07 -180             7.60492237978487E-07 1.6040406482514E-14 5.5176411926116E-08 2.31524250727458E-14 1.85533302343373E-10 180              
                               2.22900121908904E-07 -180             1.43401724923935E-07 -180             7.88657506079736E-07 -180             
                               1.75958533503953E-08 -3.14647788466501E-14 2.88485543002754E-08 -180             0.000341563947252471 -179.999999999981 8.32761174217896E-09 1.13138673597743E-14 
                               4.49540891997465E-09 180              4.11468214045338E-09 4.85023468002539E-15 5.51156230016983E-10 4.47513441953835E-15 1.62091944483346E-12 180              
                               1.18944108468245E-09 180              3.28499235132327E-09 180              4.21151254795247E-09 -180             
                               9.64253708353659E-07 -2.60816837328055E-14 8.3151207128601E-08 180              8.32761174217899E-09 8.40703118563184E-15 0.000132857035476791 179.999999999934 
                               2.92257733662491E-07 -180             2.83037251909052E-06 -180             1.70855317192963E-07 1.56292353913098E-14 9.84501063060471E-11 180              
                               8.63421565401439E-08 -180             4.13402436837109E-08 1.84626983311302E-14 4.01384371396064E-07 -180             
                               4.6949108098334E-08 -2.20900799563512E-14 1.33672316320731E-07 -180             4.49540891997467E-09 180              2.9225773366249E-07 -180             
                               0.00184076021858982 180              4.99858006750174E-08 1.15929875260875E-14 1.749620394067E-09 -180             2.63862620990865E-12 -180             
                               2.23303073989758E-09 -180             6.5323833670006E-09 9.65477305230546E-16 3.50259826132564E-08 4.35766667912717E-14 
                               2.58008581445705E-06 180              7.60492237978489E-07 2.54985505977518E-14 4.11468214045335E-09 7.41489422206023E-15 2.83037251909051E-06 -180             
                               4.99858006750172E-08 1.08684817161632E-14 0.000337733447320538 179.999999999962 7.09243674162101E-08 2.1021023406098E-14 8.21321557485187E-10 180              
                               1.10350770114086E-07 1.68196978384386E-14 3.88192734578871E-08 -180             4.94167373662587E-07 -180             
                               9.66242753678289E-08 180              5.5176411926116E-08 1.96632437163261E-14 5.51156230016985E-10 4.61913683652083E-15 1.70855317192963E-07 4.0514981577833E-14 
                               1.749620394067E-09 -180             7.092436741621E-08 2.41511605755035E-14 0.00118709736517935 179.999999999991 3.26148551646617E-11 180              
                               1.2668033049285E-08 1.89360238480419E-14 2.13265429834106E-09 -180             3.43999792849285E-07 -180             
                               4.84495590128608E-10 -2.86387681974861E-14 1.85533302343373E-10 -180             1.62091944483345E-12 180              9.8450106306048E-11 180              
                               2.63862620990866E-12 180              8.21321557485186E-10 -180             3.26148551646616E-11 -180             0.0013654008287969 180              
                               2.07586134866718E-11 -180             7.9037975339894E-12 -1.94474273055003E-15 1.2812985609188E-10 5.03239471463873E-14 
                               3.33480217307221E-07 3.12889613035671E-14 2.22900121908905E-07 -180             1.18944108468246E-09 -180             8.63421565401437E-08 -180             
                               2.23303073989757E-09 -180             1.10350770114085E-07 1.9825291345633E-14 1.26680330492852E-08 1.70729910356628E-14 2.07586134866717E-11 -180             
                               0.00148948260281029 179.999999999992 3.21062206147552E-09 -180             3.41834331193099E-07 -180             
                               5.85932702236864E-08 -2.86835449139174E-14 1.43401724923934E-07 -180             3.28499235132324E-09 180              4.13402436837108E-08 -1.86517238643111E-15 
                               6.53238336700062E-09 6.83490819850656E-16 3.88192734578872E-08 -180             2.13265429834106E-09 -180             7.90379753398938E-12 -3.78587731836032E-15 
                               3.21062206147551E-09 180              0.00155265935801898 179.999999999997 6.26418370999955E-08 -180             
                               2.13477139813655E-06 3.16840520448395E-15 7.88657506079735E-07 -180             4.21151254795245E-09 -180             4.01384371396066E-07 -180             
                               3.50259826132566E-08 3.37365978727287E-14 4.94167373662585E-07 -180             3.43999792849286E-07 -180             1.2812985609188E-10 2.30695290292658E-14 
                               3.41834331193102E-07 -180             6.26418370999955E-08 -180             0.00191424785875404 179.99999999999  
! Gamma         58.8521877578501 0                75.3954224937423 0                58.8522471028113 0                102.381501513961 0                75.3937459270281 0                75.3939619440387 0                75.3941685422487 0                102.381788808419 0                102.381715626872 0                75.3938184215029 0                75.3938858260525 0                
! Port Impedance         0                34.739843905414  0                67.6337325396524 0                69.4237810274118 0                33.2915695650973 0                67.8085609806631 0                33.9077086282967 0                67.7209774679924 0                66.5546814020756 0                66.5490734414001 0                67.8068724466242 0                33.9095025312681 
1.1                            0.000206190271509255 -180             3.53982019195552E-06 6.22861815010428E-21 2.00206671188414E-08 6.18598801905706E-15 1.09082500729053E-06 -6.90278092775602E-20 
                               5.36195745008613E-08 2.46929770252387E-20 2.83744235423958E-06 180              1.07322476478136E-07 180              5.28977244292233E-10 -4.08040521387781E-20 
                               3.23856313207194E-07 9.70039533466713E-21 6.69554434900278E-08 1.32830654752311E-14 2.3597160560932E-06 -6.33851455479821E-21 
                               3.53982019195553E-06 5.54767341731165E-21 0.000506173589725933 -180             3.08987428687232E-08 -180             9.09339890996069E-08 180              
                               1.4711041666121E-07 -180             8.39340654607889E-07 -6.64118033843732E-15 6.16763875148331E-08 -9.15987853560978E-21 2.0429567464711E-10 180              
                               2.32129398826249E-07 -180             1.57521214500862E-07 -180             8.69682394847915E-07 180              
                               2.00206671188413E-08 -3.35267566609759E-15 3.08987428687232E-08 180              0.000340448668595395 -179.999999999988 9.65218986853254E-09 -3.34829692128456E-15 
                               5.11964829311196E-09 180              4.86709358212786E-09 -1.51164584285568E-14 6.5952660531693E-10 -2.62341325589681E-15 1.91433726790431E-12 180              
                               1.35012894717059E-09 180              3.76112358251917E-09 -180             4.97946030094243E-09 180              
                               1.09082500729052E-06 -4.28218202074463E-20 9.09339890996066E-08 180              9.65218986853248E-09 -2.88841901984815E-16 0.000120513611359119 -180             
                               3.1556003221802E-07 180              3.03318983122725E-06 180              1.88899490426707E-07 7.29091079032379E-21 1.12177245783623E-10 -180             
                               9.58859061736569E-08 180              4.69415157595751E-08 1.88855247849702E-14 4.4981325407198E-07 -180             
                               5.36195745008615E-08 3.56566139863667E-20 1.47110416661209E-07 -180             5.11964829311194E-09 -180             3.1556003221802E-07 180              
                               0.00182709703005579 -180             5.3999550811438E-08 -1.07315561752876E-14 2.02529026350093E-09 -180             2.84411690611494E-12 180              
                               2.51185179760588E-09 -180             7.37311694540655E-09 1.57976676539223E-14 4.01571598048638E-08 9.57610908895529E-21 
                               2.83744235423958E-06 180              8.39340654607892E-07 -7.3989162480225E-15 4.86709358212782E-09 2.73755982429373E-15 3.03318983122726E-06 180              
                               5.39995508114381E-08 -6.69989278492118E-15 0.000333891145893439 -179.999999999985 7.86509048504749E-08 -7.19640542697306E-15 8.94998974929872E-10 180              