! Touchstone file exported from HFSS 2020.2.0
!        Generated:      11:09:35  avr. 27, 2020
!        Design:         test
!        Project:        test_multiport
!        Setup:          Setup1
!        Solution:       Sweep
!
!Data is not renormalized
# GHZ S MA
! Terminal data exported
! Port[1] = 1
! Port[2] = 2
! Port[3] = 3
! Port[4] = 4
! Port[5] = 5
! Port[6] = 6
! Port[7] = 7
! Port[8] = 8
! Port[9] = 9
! Port[10] = 10
! Port[11] = 11
! Port[12] = 12
! Port[13] = 13
0.9                            0.000200758916197974 -179.999999999957 2.97293039179189E-06 -2.1489570628993E-14 1.26575111228913E-08 -1.93387665279189E-14 6.94699672763825E-07 -9.1844003476501E-15 
                               3.83347763914175E-08 -5.83383616855471E-15 2.00306734920994E-06 180              8.31315422097045E-08 180              1.85579146328859E-10 2.78327176761751E-15 
                               3.47890270339481E-07 -7.34677790962668E-15 4.09076778665673E-08 -7.16107421158056E-15 1.64390749678057E-06 -7.21956820964731E-15 5.74211660891621E-07 -6.92448409405263E-15 
                               5.73703644371224E-09 -7.20021388778965E-15 
                               2.97293039179189E-06 -1.870362509652E-14 0.000463525218979188 -179.999999999987 2.41102218729334E-08 180              6.85252634677712E-08 -180             
                               1.18959883836465E-07 -180             5.87204768101007E-07 -4.06236645883074E-15 4.79509405014162E-08 -4.20820134503458E-15 7.17215809149071E-11 -180             
                               1.97090267851185E-07 180              1.08889411625905E-07 180              6.11127677972688E-07 180              3.8380970563402E-08 180              
                               5.17883335550898E-09 180              
                               1.26575111228912E-08 -1.4490182712527E-14 2.41102218729334E-08 180              0.000310703728858219 -179.999999999993 5.83119110720905E-09 -1.00156966152826E-14 
                               3.64347986351441E-09 180              2.66913102843407E-09 -3.80683109903698E-15 4.14084774662623E-10 -4.89144522742565E-15 5.74499072165484E-13 -180             
                               8.54586529046219E-10 180              2.21908132069214E-09 180              2.79240439556845E-09 180              4.25919209225193E-09 -4.21350266042008E-15 
                               7.62050609853584E-11 180              
                               6.94699672763825E-07 -1.49431460865132E-14 6.85252634677712E-08 180              5.83119110720904E-09 -7.0098335363381E-15 0.000200470937113728 -179.999999999985 
                               2.69920196607261E-07 -180             2.35197788670767E-06 -180             1.57233561438721E-07 -3.43484473526231E-16 1.26309679776681E-10 180              
                               6.47833634685796E-08 -180             2.97301826158116E-08 8.51900045045757E-16 2.98890062541985E-07 -180             3.22825205291351E-06 6.8821503611731E-17 
                               7.25877723468166E-08 1.60843498315125E-15 
                               3.83347763914174E-08 -5.51148552866398E-15 1.18959883836464E-07 180              3.64347986351442E-09 180              2.69920196607261E-07 -180             
                               0.00175083501773987 180              4.66398885217969E-08 1.00277367658446E-15 1.4694462476955E-09 -180             2.38395546948293E-13 -2.52531450507526E-13 
                               1.89003843730054E-09 -180             5.11324511392476E-09 1.58774764229518E-15 2.79680359429848E-08 5.38133211893506E-16 2.73843004410027E-08 4.5545580573319E-16 
                               9.49620659673508E-10 8.51098656684956E-16 
                               2.00306734920994E-06 180              5.87204768101004E-07 -9.81657456877439E-15 2.66913102843407E-09 -6.98796149480633E-15 2.35197788670767E-06 180              
                               4.66398885217969E-08 3.5522622456131E-15 0.000251895068767771 180              6.33100251170703E-08 -2.91495623251512E-20 4.90689954612874E-10 180              
                               8.81569041751525E-08 4.72010653193309E-20 2.62139178550788E-08 180              3.81670816143288E-07 180              2.53383063492385E-07 -7.25832455173332E-20 
                               2.67693139469325E-09 -180             
                               8.31315422097042E-08 180              4.79509405014163E-08 -8.57307204340903E-15 4.14084774662622E-10 -1.30600907989039E-14 1.57233561438721E-07 4.86090416447563E-15 
                               1.4694462476955E-09 -180             6.33100251170704E-08 -9.31530141798882E-20 0.00189835033750996 180              1.21035373716189E-11 -180             
                               1.18389534066016E-08 3.55542830477006E-20 1.89753312785821E-09 180              3.30689755853684E-07 180              3.00581055751599E-07 1.57708019581743E-20 
                               6.63085906371253E-10 1.76018046350801E-19 
                               1.85579146328859E-10 -7.56972196827804E-15 7.17215809149072E-11 180              5.74499072165484E-13 -180             1.2630967977668E-10 -180             
                               2.3839554694829E-13 -2.11294260593888E-14 4.90689954612873E-10 -180             1.21035373716189E-11 -180             0.00215065628219535 179.999999999996 
                               6.61419555614395E-12 -180             1.92741997516181E-12 7.23897901615766E-15 3.75978445470866E-11 7.11454934891568E-15 1.0965626772967E-10 -180             
                               4.99775269798047E-13 -180             
                               3.47890270339482E-07 -1.33583008270045E-15 1.97090267851185E-07 180              8.5458652904622E-10 180              6.47833634685795E-08 180              
                               1.89003843730054E-09 180              8.81569041751526E-08 2.25515098572863E-20 1.18389534066016E-08 1.08817271490945E-20 6.61419555614396E-12 -180             
                               0.00167137286281116 -180             2.38078765395469E-09 -180             2.84379993536343E-07 -180             7.9106312737874E-08 -180             
                               4.86739404621582E-10 -180             
                               4.09076778665672E-08 -1.52960393855321E-14 1.08889411625905E-07 180              2.21908132069214E-09 180              2.97301826158116E-08 -1.33077997410647E-15 
                               5.11324511392476E-09 1.09756997416731E-14 2.62139178550789E-08 180              1.8975331278582E-09 180              1.9274199751618E-12 2.87429505518917E-14 
                               2.38078765395468E-09 -180             0.00175831831197226 -180             4.97763840615255E-08 -180             2.40807355927188E-07 -180             
                               8.65735141826599E-10 8.66245924787436E-22 
                               1.64390749678057E-06 -8.27771940749379E-15 6.11127677972687E-07 180              2.79240439556845E-09 180              2.98890062541985E-07 180              
                               2.79680359429848E-08 1.10913832882189E-14 3.81670816143288E-07 180              3.30689755853683E-07 180              3.75978445470866E-11 1.58972196764119E-14 
                               2.84379993536342E-07 -180             4.97763840615256E-08 -180             0.000792304581840875 -180             2.18187452007938E-06 -3.63329742960214E-21 
                               2.34032032311501E-09 -7.38112956275938E-20 
                               5.74211660891621E-07 -2.8194470773966E-14 3.83809705634025E-08 180              4.25919209225194E-09 -2.69939718067571E-14 3.22825205291351E-06 4.47086374173506E-15 
                               2.73843004410026E-08 -3.77021727255326E-15 2.53383063492385E-07 -1.26065442946947E-19 3.00581055751598E-07 1.63517638272136E-20 1.09656267729671E-10 -180             
                               7.91063127378739E-08 -180             2.40807355927187E-07 180              2.18187452007938E-06 -1.58637202801594E-20 0.00139136186017408 180              
                               4.47044326299268E-08 4.54070836689273E-20 
                               5.73703644371225E-09 -1.68320207264543E-14 5.17883335550899E-09 180              7.62050609853583E-11 180              7.25877723468166E-08 1.5271289988229E-15 
                               9.49620659673504E-10 3.47926424633528E-15 2.67693139469325E-09 -180             6.63085906371253E-10 8.86322607487444E-20 4.99775269798048E-13 180              
                               4.86739404621582E-10 -180             8.65735141826597E-10 -7.8618713814575E-22 2.34032032311502E-09 -1.43337024705536E-19 4.47044326299269E-08 2.27342572771364E-20 
                               0.000511950641854719 180              
! Gamma         59.9338037265102 0                76.2426095421517 0                59.9338832961818 0                103.007099877982 0                76.2410772922222 0                76.2412753273013 0                76.24124900258   0                103.00736693995  0                103.007663703023 0                76.241135352991  0                76.2411758736498 0                103.007089201169 0                59.9337732369353 0                
! Port Impedance         0                29.2416187918661 0                57.3177493568226 0                58.431049212369  0                28.3630653615091 0                57.4782474013389 0                28.7407489568579 0                57.4651121131779 0                56.6842645373941 0                56.668991066397  0                57.4738464637634 0                28.743634657193  0                28.3626785207924 0                58.4919802337565 
0.95                           0.000197599192507503 180              3.09645909632271E-06 1.3441760512585E-14 1.41178307908826E-08 1.72381963102999E-14 7.6912140448036E-07 5.36940654072871E-15 
                               4.26276133240354E-08 -1.79399049845049E-19 2.16690410543265E-06 180              9.06518246904685E-08 180              2.00439203805601E-10 -1.18852258086034E-14 
                               3.46286627989326E-07 7.33408920681774E-15 4.56537156755352E-08 -1.36450162218427E-14 1.7857439356321E-06 -2.0923737598525E-20 6.35601899592872E-07 1.37090936997728E-20 
                               6.69771572633196E-09 -9.27763669131569E-21 
                               3.09645909632271E-06 8.82645771943064E-15 0.000461833518577648 179.999999999989 2.56709261946584E-08 -180             7.37109246894886E-08 -180             
                               1.28545124674575E-07 -180             6.36869303455902E-07 9.06837812780113E-15 5.25259651859115E-08 8.50229117117766E-15 7.80061303759755E-11 180              
                               2.04434267343264E-07 -180             1.17730291094923E-07 180              6.62360037380801E-07 -180             4.10420978983172E-08 -180             
                               5.91163747644476E-09 -180             
                               1.41178307908826E-08 6.77235090654662E-15 2.56709261946584E-08 -180             0.000310506464459848 179.999999999977 6.58317267679355E-09 6.90557821971367E-15 
                               4.05724390319927E-09 -180             3.06787200791153E-09 6.79212799113036E-15 4.80013157720342E-10 6.20583864233301E-15 6.62158245864071E-13 180              
                               9.51009018128716E-10 -180             2.48673050002947E-09 180              3.20575678188806E-09 -180             4.84357680883172E-09 6.78305933698896E-15 
                               8.98497322659204E-11 -180             
                               7.6912140448036E-07 3.45054643125869E-15 7.37109246894891E-08 -180             6.58317267679355E-09 1.45820171804514E-14 0.000189984204037596 179.999999999975 
                               2.87370115855065E-07 -180             2.49016328759576E-06 -180             1.70612733672163E-07 3.73210963754239E-15 1.37616087484727E-10 180              
                               7.06451163546576E-08 -180             3.30514821171604E-08 -1.58985189999134E-14 3.28251311174597E-07 -180             3.42305943747694E-06 3.58920245763961E-15 
                               7.93485505273413E-08 3.44304282570028E-15 
                               4.26276133240355E-08 -8.06399508856343E-20 1.28545124674576E-07 -180             4.05724390319927E-09 -180             2.87370115855064E-07 180              
                               0.00174020884286175 -180             4.97852733887387E-08 -1.28117022201337E-19 1.65580733639427E-09 180              2.88397323741434E-13 -4.28370216050279E-13 
                               2.07110075319741E-09 180              5.65432900261138E-09 -1.30945886456868E-14 3.12584412224686E-08 1.11485392133827E-20 3.02536344137184E-08 2.49518936348988E-19 
                               1.08098306463432E-09 1.71960400704341E-19 
                               2.16690410543265E-06 180              6.36869303455902E-07 1.90235007763836E-14 3.06787200791153E-09 1.22784558912743E-14 2.49016328759576E-06 -180             
                               4.97852733887387E-08 -5.03602284709339E-20 0.00024947377189477 180              6.89125967562803E-08 1.17141693508265E-20 5.25005662551643E-10 180              
                               9.43683004067032E-08 -7.00953821447674E-16 2.93710545171598E-08 180              4.14443649828551E-07 -180             2.78185643726542E-07 6.25170314898701E-21 
                               3.07143643988271E-09 -180             
                               9.06518246904685E-08 180              5.25259651859114E-08 1.67945442916549E-14 4.80013157720344E-10 1.81128587927648E-14 1.70612733672163E-07 2.17759198009236E-15 
                               1.65580733639427E-09 -180             6.89125967562804E-08 2.90409104055024E-21 0.00188532751734749 180              1.33106533408685E-11 -180             
                               1.25419823629328E-08 -5.32473897601784E-16 2.11730458725527E-09 180              3.52627596580519E-07 -180             3.21844041746881E-07 1.63805663590874E-21 
                               7.483292905769E-10 6.79288129014305E-21 
                               2.00439203805602E-10 -2.17761988583911E-15 7.80061303759753E-11 -180             6.6215824586407E-13 -180             1.37616087484727E-10 180              
                               2.88397323741431E-13 -2.56424684471667E-15 5.25005662551642E-10 180              1.33106533408685E-11 180              0.00214641071098198 -179.999999999998 
                               6.92586901775903E-12 180              2.16280123931338E-12 -6.45442671530775E-15 4.12336433447035E-11 -2.15969101377315E-15 1.20247714717019E-10 180              
                               5.68324425420898E-13 180              
                               3.46286627989326E-07 3.9652045843619E-16 2.04434267343264E-07 -180             9.51009018128716E-10 -180             7.06451163546576E-08 -180             
                               2.07110075319741E-09 -180             9.43683004067036E-08 7.69267052855544E-16 1.25419823629328E-08 8.35837585793017E-16 6.92586901775903E-12 180              
                               0.00166691198434255 -180             2.62978336412255E-09 180              3.00018769154501E-07 -180             8.53833138497917E-08 -180             
                               5.58249522401333E-10 -180             
                               4.56537156755353E-08 3.82270589126877E-15 1.17730291094922E-07 -180             2.48673050002947E-09 -180             3.30514821171605E-08 1.19442331426922E-14 
                               5.65432900261139E-09 4.45870086275597E-15 2.93710545171598E-08 -180             2.11730458725527E-09 -180             2.16280123931338E-12 2.54278928005759E-14 
                               2.62978336412255E-09 -180             0.00174744115450154 -179.999999999999 5.33479353387483E-08 -180             2.56592266561084E-07 -180             
                               9.87152222023609E-10 3.54292784235358E-15 
                               1.7857439356321E-06 -4.10111373214652E-20 6.623600373808E-07 -180             3.20575678188806E-09 -180             3.28251311174597E-07 -180             
                               3.12584412224686E-08 1.06894227103041E-19 4.14443649828552E-07 -180             3.52627596580518E-07 -180             4.12336433447034E-11 8.91984553401849E-15 
                               3.00018769154501E-07 180              5.33479353387481E-08 180              0.000784173545339439 180              2.31175243242965E-06 -1.66039766509126E-21 
                               2.69018067894742E-09 1.26070017678844E-20 
                               6.35601899592871E-07 6.63284552667638E-20 4.10420978983177E-08 180              4.84357680883173E-09 8.27986165617771E-15 3.42305943747694E-06 9.68302193560483E-15 
                               3.02536344137183E-08 -2.83130696723881E-19 2.78185643726542E-07 -2.51082409534789E-19 3.21844041746881E-07 1.67106231445888E-20 1.20247714717019E-10 180              
                               8.53833138497916E-08 180              2.56592266561085E-07 180              2.31175243242966E-06 -5.72648086293589E-21 0.00137792625602995 180              
                               4.90913957564236E-08 4.54132606155238E-20 
                               6.69771572633196E-09 -4.96395596968362E-20 5.91163747644475E-09 -180             8.98497322659204E-11 -180             7.93485505273413E-08 1.00605491723891E-15 
                               1.08098306463432E-09 2.90214613857916E-20 3.07143643988271E-09 -180             7.48329290576901E-10 -7.75952595751377E-21 5.68324425420899E-13 180              
                               5.58249522401334E-10 180              9.87152222023606E-10 -1.78746868925338E-14 2.69018067894743E-09 3.23819307482282E-20 4.90913957564236E-08 -8.94136137336956E-22 
                               0.000509081915492371 -180             
! Gamma         59.5938720871072 0                75.9756821029179 0                59.5939521106543 0                102.809685275655 0                75.974144469584  0                75.9743432004518 0                75.9743167832396 0                102.809952850433 0                102.810250183344 0                75.9742027343472 0                75.9742433973739 0                102.80967457834  0                59.5938414236155 0                
! Port Impedance         0                31.0422164086499 0                60.7146149013246 0                62.0290269349161 0                29.9962786378845 0                60.8846465896224 0                30.4440460785154 0                60.8707326827222 0                59.9482796052427 0                59.9321254188325 0                60.879984299337  0                30.4471031242559 0                29.9958694096348 0                62.0937110259446 
1                              0.000194028018226877 180              3.22999991522186E-06 9.1176994176385E-15 1.58500633823946E-08 -4.13957015175933E-20 8.5740825318212E-07 -1.2196369992505E-14 
                               4.77728195634966E-08 9.35047509099109E-21 2.35651901442694E-06 -180             9.93912717101013E-08 -180             2.17460194663883E-10 2.84869233379571E-20 
                               3.42779812547787E-07 -1.1119865859354E-20 5.13423449634993E-08 3.20685368165019E-15 1.95056245411537E-06 -5.00862993525062E-21 7.08506793228797E-07 -5.60254025814276E-15 
                               7.89964834809768E-09 -1.70560048762304E-19 
                               3.22999991522185E-06 -3.30718184812657E-15 0.000460030630187625 180              2.73963461018937E-08 180              7.96849569082215E-08 -180             
                               1.39631859831207E-07 180              6.94574229391904E-07 1.63259406552806E-15 5.78881546279314E-08 -2.91437647372707E-15 8.52963042638447E-11 180              
                               2.12380666999429E-07 180              1.27965602826284E-07 180              7.21829938755533E-07 180              4.40783892987852E-08 -180             
                               6.80696465711718E-09 180              
                               1.58500633823947E-08 2.13283465443027E-20 2.73963461018936E-08 180              0.000310377926344141 -180             7.49365939282531E-09 -3.05176262015052E-15 
                               4.54923277556342E-09 -180             3.55917422957315E-09 6.50302508897072E-15 5.61903251021651E-10 -1.49926683806673E-20 7.70222741271998E-13 -180             
                               1.06521889561299E-09 -180             2.80719231773723E-09 180              3.71487189216954E-09 -180             5.55550754300087E-09 -6.37009228834831E-15 
                               1.07048979668056E-10 -180             
                               8.57408253182118E-07 3.71008276657359E-17 7.96849569082219E-08 180              7.49365939282532E-09 -4.57647058827171E-16 0.000178739644064119 179.999999999995 
                               3.07215222348635E-07 180              2.64674099243921E-06 -180             1.8613695327873E-07 -9.40331814946969E-16 1.50705927936717E-10 180              
                               7.74904324905015E-08 180              3.70002496991028E-08 -2.32450288708116E-15 3.62805089288673E-07 180              3.64358871272322E-06 -1.59859373206714E-14 
                               8.72350529282616E-08 -9.90155580841038E-16 
                               4.77728195634967E-08 8.25485671923292E-21 1.39631859831207E-07 -180             4.54923277556342E-09 180              3.07215222348635E-07 180              
                               0.00172901738635411 -180             5.33329532145661E-08 6.30166437727495E-15 1.88122835205161E-09 180              3.51317549120062E-13 -1.1504224327971E-18 
                               2.28688281141931E-09 -180             6.29334024748803E-09 3.20881956435996E-15 3.5204148130256E-08 -1.89672331279377E-20 3.36519657145887E-08 -1.07361750487636E-16 
                               1.24088127914431E-09 1.36884667848792E-19 
                               2.35651901442695E-06 -180             6.94574229391904E-07 4.51925885329654E-15 3.55917422957316E-09 5.00706400215691E-15 2.64674099243921E-06 180              
                               5.33329532145663E-08 4.34819717201542E-15 0.000246874908409911 179.999999999974 7.54383656177155E-08 5.39822073064661E-15 5.63908284733392E-10 -180             
                               1.01495567428687E-07 5.50699375199095E-15 3.3161837346057E-08 -180             4.52464734206483E-07 -180             3.07363164829988E-07 -1.94749590111622E-16 
                               3.5567509895002E-09 -180             
                               9.93912717101011E-08 -180             5.78881546279315E-08 5.34871374127829E-15 5.61903251021652E-10 -6.16898189691776E-20 1.86136953278731E-07 -7.00646639221011E-15 
                               1.88122835205161E-09 180              7.54383656177158E-08 1.06811451531817E-15 0.00187170316371377 -180             1.4729208935456E-11 180              
                               1.33315613318246E-08 3.26663263900748E-20 2.38034402400749E-09 -180             3.77536823813519E-07 -180             3.46161317550202E-07 -1.12693542614622E-14 
                               8.50840136488022E-10 -4.12686155246895E-19 
                               2.17460194663883E-10 7.00393403358422E-20 8.52963042638447E-11 -180             7.70222741271998E-13 180              1.50705927936716E-10 180              
                               3.51317549120061E-13 -3.36794532456735E-18 5.6390828473339E-10 -180             1.47292089354561E-11 180              0.00214195355447111 180              
                               7.2655138401527E-12 -180             2.44585890399276E-12 5.95407201420398E-15 4.54851625726578E-11 1.84310954711473E-19 1.32654079680832E-10 180              
                               6.51321243711843E-13 180              
                               3.42779812547788E-07 1.09386423656937E-21 2.12380666999428E-07 180              1.06521889561298E-09 -180             7.74904324905016E-08 180              
                               2.28688281141931E-09 -180             1.01495567428687E-07 1.14503221746834E-14 1.33315613318247E-08 -9.9747596055029E-21 7.26551384015272E-12 -180             
                               0.00166221684645218 -180             2.9243859823486E-09 -180             3.17632870130683E-07 -180             9.26673038836286E-08 -180             
                               6.46112719068232E-10 -180             
                               5.13423449634993E-08 2.05440997418617E-15 1.27965602826285E-07 180              2.80719231773723E-09 -180             3.70002496991028E-08 6.36245755674355E-16 
                               6.29334024748804E-09 1.99476235050394E-15 3.3161837346057E-08 -180             2.38034402400748E-09 -180             2.44585890399277E-12 2.09996774199807E-15 
                               2.9243859823486E-09 -180             0.00173602223283542 179.999999999998 5.74001351663106E-08 -180             2.74558921944245E-07 -180             
                               1.13521538096922E-09 2.42335128230636E-15 
                               1.95056245411537E-06 -3.21920420718432E-21 7.21829938755533E-07 -180             3.71487189216955E-09 180              3.62805089288673E-07 180              
                               3.52041481302559E-08 -2.15961705209705E-20 4.52464734206484E-07 -180             3.77536823813519E-07 -180             4.54851625726577E-11 6.06641603135211E-20 
                               3.17632870130682E-07 180              5.74001351663107E-08 -180             0.000775588989336162 -180             2.45889698858054E-06 -4.91594625562067E-15 
                               3.12148434089318E-09 -1.36617221571425E-19 
                               7.08506793228798E-07 -4.57584416093344E-15 4.40783892987841E-08 180              5.55550754300088E-09 -4.26226398905952E-15 3.64358871272322E-06 -1.36187996133889E-14 
                               3.36519657145889E-08 -4.32385608642844E-15 3.07363164829989E-07 -4.19160705570411E-16 3.46161317550202E-07 -4.15895044629795E-15 1.32654079680832E-10 180              
                               9.26673038836288E-08 180              2.74558921944245E-07 180              2.45889698858054E-06 -3.5545809518267E-15 0.00136362430071713 -179.999999999996 
                               5.42403039051128E-08 -4.97857755690593E-15 
                               7.89964834809766E-09 -9.40604577743015E-20 6.80696465711717E-09 -180             1.07048979668056E-10 -180             8.72350529282615E-08 -8.07861563577423E-15 
                               1.24088127914432E-09 2.06377918380076E-19 3.5567509895002E-09 -180             8.50840136488022E-10 -2.7715486522099E-19 6.51321243711845E-13 180              
                               6.46112719068232E-10 180              1.13521538096922E-09 4.41170396687326E-15 3.12148434089319E-09 -4.17053884932813E-20 5.4240303905113E-08 -5.05803680088089E-15 
                               0.000506125844942029 -180             
! Gamma         59.2334539627996 0                75.6933071614145 0                59.233534473266  0                102.601188416645 0                75.6917637918012 0                75.6919632640652 0                75.6919367483001 0                102.601456535162 0                102.601754472282 0                75.6918222739307 0                75.6918630886575 0                102.601177697592 0                59.2334231127293 0                
! Port Impedance         0                32.8748394529974 0                64.1485188495453 0                65.6909975621589 0                31.6391930781206 0                64.328191982561  0                32.1659175781018 0                64.3134909368795 0                63.2316825531492 0                63.2146422111544 0                64.3232653956483 0                32.1691478951123 0                31.6387613103344 0                65.7595016863128 
1.05                           0.000189981265905688 -179.999999999964 3.37356205273487E-06 -1.47884441926016E-14 1.79135466554873E-08 -3.6213975571157E-14 9.62745578253172E-07 -3.69723720560165E-14 
                               5.39822321429638E-08 -5.82386562860101E-15 2.57682457247552E-06 -180             1.09583930873364E-07 180              2.36998595710376E-10 1.40126389658705E-14 
                               3.3673133694803E-07 -1.96063928007846E-14 5.8206314064624E-08 1.91851773319085E-14 2.14288061945399E-06 -6.13388576523655E-15 7.95593200943317E-07 -1.66295235013557E-14 
                               9.41734624500149E-09 -6.70237360683345E-15 
                               3.37356205273485E-06 -2.89118715933086E-14 0.000458110629805322 -179.999999999979 2.92944148875838E-08 180              8.65960575608525E-08 180              
                               1.52506577773067E-07 180              7.61915500972332E-07 -1.22896046479043E-14 6.42031179469104E-08 -2.15004094309499E-14 9.37856645356992E-11 -180             
                               2.20943163753666E-07 180              1.39863940209755E-07 -180             7.9115997204692E-07 180              4.75533534265609E-08 -180             
                               7.90905479476503E-09 180              
                               1.79135466554874E-08 -1.82701655454795E-14 2.92944148875836E-08 180              0.000310334623041583 -179.999999999965 8.60387745542773E-09 -1.9982922317147E-14 