! Touchstone file exported from HFSS 2020.2.0
!        Generated:      10:25:17  avr. 27, 2020
!        Design:         test
!        Project:        test_multiport
!        Setup:          Setup1
!        Solution:       Sweep
!
!Data is not renormalized
# GHZ S MA
! Terminal data exported
! Port[1] = 1
! Port[2] = 2
! Port[3] = 3
! Port[4] = 4
! Port[5] = 5
! Port[6] = 6
! Port[7] = 7
! Port[8] = 8
! Port[9] = 9
! Port[10] = 10
! Port[11] = 11
! Port[12] = 12
! Port[13] = 13
! Port[14] = 14
! Port[15] = 15
! Port[16] = 16
! Port[17] = 17
! Port[18] = 18
! Port[19] = 19
0.9                            0.000271575514950939 -180             3.13279868153243E-06 -8.60866020874819E-15 1.19781009139971E-08 1.50870900818466E-14 6.98212004173611E-07 2.10816712581191E-19 
                               3.71333030291556E-08 8.57728540170796E-20 2.02015115457888E-06 180              9.42576124096311E-08 -180             3.47379345570681E-10 3.11721953726146E-15 
                               3.73407538176639E-07 9.78885793026484E-15 4.71815117922544E-08 1.09650369760121E-14 1.66616100988145E-06 -1.89012504594122E-20 5.74098119455936E-07 1.78209314544099E-19 
                               6.15826082219947E-09 9.1203842298224E-20 6.35152712655533E-07 -180             1.13581641165508E-06 180              1.06972452407417E-07 -180             
                               4.28563102790993E-08 -180             9.7062612024328E-11 -180             1.19274441991943E-07 6.3833355628226E-20 
                               3.13279868153243E-06 2.18943608717977E-15 0.000478086308277392 179.999999999989 2.07713676029645E-08 -180             5.58278138264875E-08 -180             
                               1.14163650603527E-07 -180             5.69643982120797E-07 1.73795523343812E-15 5.12253621730691E-08 1.63932258178688E-15 1.26853605680452E-10 180              
                               1.97430473165313E-07 -180             1.21078951617219E-07 -180             5.97710911794756E-07 -180             4.13254348717776E-08 -180             
                               5.44189641324193E-09 -180             4.47692758806507E-07 1.78920418348631E-15 6.29685572577577E-07 -2.72967854860476E-14 1.88786146541112E-07 2.07140014947751E-15 
                               4.28018384999018E-08 2.00856913257598E-15 5.08303718270271E-11 1.83590949376364E-15 1.96785796250649E-07 -180             
                               1.19781009139972E-08 9.14406151146566E-15 2.07713676029645E-08 -180             0.000426318444906815 179.999999999982 5.36864062936953E-09 9.22489302753732E-15 
                               3.29484605205671E-09 -180             2.56540085601653E-09 9.58835399982662E-15 4.20793235469923E-10 9.53897646893023E-15 9.25302072111584E-13 -180             
                               8.38635008567951E-10 -180             2.24717756698179E-09 -180             2.62248441595713E-09 -180             4.06484402358935E-09 9.58947484431803E-15 
                               7.69441237621094E-11 -180             5.20606900827125E-09 1.24583521992026E-14 5.87505034809109E-09 -1.67268695074494E-14 2.31091306408292E-09 9.99728263891613E-15 
                               6.09616903444413E-10 8.96280922347114E-15 4.36176665659735E-13 9.91688098084237E-15 2.12214117833934E-09 9.46622426878927E-15 
                               6.98212004173612E-07 2.42514580150526E-19 5.58278138264871E-08 -180             5.36864062936952E-09 1.7684811612977E-14 0.000554252208684436 -180             
                               2.59584281664477E-07 180              2.34299292992833E-06 -180             1.6554496423466E-07 2.87383075262492E-20 9.52842284197139E-11 -180             
                               6.69355279291605E-08 -180             3.50400821059422E-08 9.70173888612072E-17 3.03574612844928E-07 180              3.23656940891848E-06 -1.65722919139897E-19 
                               7.73417570979602E-08 -2.64158874094843E-20 2.23091327763415E-06 4.44349060810653E-16 4.7376533845407E-06 -3.16039518038069E-14 8.42707017275663E-08 180              
                               2.28686105058279E-07 180              4.04235027785954E-09 180              6.43207250813858E-08 -2.30772698168296E-20 
                               3.71333030291557E-08 3.87133620391957E-20 1.14163650603527E-07 180              3.29484605205671E-09 -180             2.59584281664477E-07 180              
                               0.000917616563509416 -180             4.46664567800573E-08 6.58549770313548E-20 1.6543233704373E-09 180              1.68319942579679E-12 180              
                               1.91250466088803E-09 -180             5.34971176664344E-09 8.07420017811876E-15 2.71097174344731E-08 -9.32577276461685E-20 2.61332849402751E-08 1.3947184830656E-19 
                               9.77169489768023E-10 3.39007809001483E-21 4.68901722364156E-08 -180             3.20572061625348E-08 180              9.3765749057878E-09 1.07595310029578E-20 
                               5.29717609079745E-09 -180             7.42000800727642E-11 -180             1.58769906501393E-09 -180             
                               2.02015115457888E-06 180              5.69643982120797E-07 1.65747852809992E-15 2.56540085601652E-09 1.38149443938077E-14 2.34299292992834E-06 -180             
                               4.46664567800572E-08 5.62994499958146E-20 0.000304256992017748 -180             6.81803196155842E-08 3.74406291610943E-20 6.45954992749024E-10 -180             
                               9.23937952347762E-08 3.42843212562412E-16 2.88265895947955E-08 -180             3.84278472180144E-07 180              2.56241471944447E-07 -9.18998805100952E-19 
                               2.86943212293782E-09 -180             5.64423902655829E-07 -7.15619583509591E-15 1.98072951813343E-06 -3.18849278835062E-14 1.58066488616282E-08 180              
                               1.01530716189656E-08 5.16984884425784E-19 1.28002996027947E-10 1.48427971222511E-19 1.20666933397358E-08 -180             
                               9.42576124096313E-08 -180             5.12253621730692E-08 3.93533880608462E-16 4.20793235469924E-10 1.08984498362158E-14 1.6554496423466E-07 5.4582355142319E-20 
                               1.65432337043729E-09 -180             6.81803196155844E-08 5.65526174095813E-20 0.00100234905479302 -180             2.77484406906864E-11 180              
                               1.39192622501961E-08 4.74651191527743E-15 1.77080851443487E-09 -180             3.63937524993888E-07 -180             2.95613665169655E-07 2.19787897349737E-20 
                               7.19903570831151E-10 2.99326088437599E-20 1.14073359031105E-07 -180             3.14043604469694E-08 180              5.11186699285801E-09 -180             
                               5.16454129102998E-09 -180             1.27991756912719E-11 -180             1.87553561065091E-09 2.92768159773331E-20 
                               3.47379345570682E-10 -3.76209688584256E-15 1.26853605680453E-10 180              9.25302072111584E-13 -180             9.5284228419714E-11 180              
                               1.68319942579678E-12 180              6.45954992749025E-10 180              2.77484406906863E-11 180              0.00217424350131146 -179.999999999998 
                               1.61868640288623E-11 180              4.89648697081322E-12 8.41242725260206E-15 8.57258376783213E-11 -4.18651148090148E-15 1.93293128368697E-10 180              
                               7.33741454666836E-13 180              4.05081071392554E-11 1.6959884317814E-14 3.1189153555119E-11 -7.5557816553386E-14 8.33755271652419E-12 -3.91767283425574E-15 
                               3.92933871735175E-12 -4.62773118306439E-15 6.91534548039138E-15 -4.09861441069353E-15 8.76307534502151E-13 180              
                               3.73407538176638E-07 -2.21703451314217E-15 1.97430473165313E-07 180              8.3863500856795E-10 -180             6.69355279291608E-08 180              
                               1.91250466088803E-09 180              9.23937952347764E-08 -2.07218034569395E-15 1.39192622501961E-08 -2.85367330645447E-15 1.61868640288623E-11 180              
                               0.000913583361144443 179.999999999999 2.87419795578769E-09 -180             2.97940935506478E-07 180              8.28933194080538E-08 180              
                               5.42626927685394E-10 180              6.1995498501332E-08 -1.84391973850494E-15 1.09419101011008E-07 -4.23548506805636E-14 9.44479943736941E-09 -2.06251033261552E-15 
                               4.10309353971311E-09 -2.33611853042628E-15 6.95677440992181E-12 -2.41363964478861E-15 1.0205771395585E-08 180              
                               4.71815117922544E-08 4.90495105722633E-15 1.21078951617219E-07 -180             2.24717756698179E-09 -180             3.50400821059422E-08 5.43984205244259E-15 
                               5.34971176664345E-09 5.83182974870282E-15 2.88265895947956E-08 -180             1.77080851443487E-09 -180             4.89648697081323E-12 -3.56418037421905E-15 
                               2.87419795578769E-09 -180             0.002549120733088 179.999999999998 5.53369180287936E-08 -180             2.66388299601981E-07 -180             
                               1.02815208499226E-09 4.02591389893911E-15 5.43535419775223E-08 -180             3.26620708120806E-08 180              4.1849723839972E-08 3.66486747287763E-15 
                               1.68458775552117E-08 -180             5.76734736307578E-12 4.38567067469928E-15 4.54744342397088E-08 4.35034884177638E-15 
                               1.66616100988145E-06 -2.5414000602124E-20 5.97710911794756E-07 180              2.62248441595713E-09 -180             3.03574612844929E-07 180              
                               2.71097174344732E-08 -7.84145298131494E-20 3.84278472180145E-07 180              3.63937524993886E-07 -180             8.57258376783213E-11 -1.83822326092E-14 
                               2.97940935506478E-07 180              5.53369180287936E-08 -180             0.000934269783199992 -180             2.16817762140641E-06 7.83930798644449E-20 
                               2.44206329666154E-09 1.91614330761189E-19 5.84864818037425E-07 -180             1.68669185588953E-06 180              2.25019364839348E-08 -9.92558672857167E-20 
                               1.29138665542313E-08 -180             7.05587068199983E-11 -1.64704038131231E-19 6.61239459041055E-08 -180             
                               5.74098119455935E-07 2.57575435173655E-19 4.13254348717772E-08 -180             4.06484402358934E-09 2.19553903172533E-14 3.23656940891848E-06 -1.91767858816008E-19 
                               2.61332849402749E-08 1.41306173458121E-19 2.56241471944446E-07 -1.0620177725076E-18 2.95613665169655E-07 7.1146235005096E-21 1.93293128368697E-10 180              
                               8.28933194080537E-08 180              2.66388299601981E-07 180              2.16817762140641E-06 1.04760763501621E-19 0.00216037312936168 -180             
                               4.79441603357476E-08 -2.39628000069676E-20 2.22663253044936E-06 9.23569740513382E-15 3.43120855859584E-06 -3.85495491182917E-14 9.55202255002017E-08 180              
                               1.04805045178208E-06 180              1.63199529418878E-10 180              1.06930437281022E-07 -180             
                               6.15826082219947E-09 9.85444973958751E-20 5.44189641324192E-09 180              7.6944123762109E-11 -180             7.73417570979602E-08 -2.33058466444054E-20 
                               9.77169489768021E-10 8.38762048137289E-21 2.86943212293781E-09 -180             7.19903570831152E-10 2.03820791468544E-20 7.33741454666836E-13 -180             
                               5.42626927685393E-10 -180             1.02815208499225E-09 9.50069153416812E-15 2.44206329666153E-09 2.55399796679529E-19 4.79441603357475E-08 -2.73941124110473E-20 
                               0.00047838389900634 -180             3.39386082374077E-08 5.01085976394236E-17 1.32789904974888E-08 -2.63940982526193E-14 9.58169089947424E-10 3.80076219744305E-20 
                               2.352386007414E-10 1.29271188033896E-19 1.06002257550014E-11 9.66465011013317E-21 1.47336725657729E-10 -1.04170034746709E-19 
                               6.35152712655531E-07 -180             4.47692758806507E-07 3.62049651076908E-15 5.20606900827123E-09 1.61402570313853E-14 2.23091327763416E-06 3.56123024435062E-15 
                               4.68901722364155E-08 -180             5.64423902655828E-07 2.80641114989165E-15 1.14073359031105E-07 -180             4.05081071392553E-11 -3.92729896154082E-15 
                               6.1995498501332E-08 2.13062312176074E-15 5.43535419775224E-08 -180             5.84864818037424E-07 -180             2.22663253044936E-06 2.73084805823649E-15 
                               3.39386082374079E-08 2.95640200517975E-15 0.000651164586153996 179.999999999995 3.05271394675441E-06 180              6.50138724013123E-08 -180             
                               1.02766079858087E-07 -180             3.70257723326116E-10 -180             4.27965366155974E-10 3.55356711328473E-15 
                               1.13581641165508E-06 180              6.29685572577577E-07 -2.91043070201957E-14 5.87505034809109E-09 -1.27335737985122E-14 4.73765338454073E-06 -2.3404485837024E-14 
                               3.20572061625348E-08 180              1.98072951813343E-06 -2.39954788321762E-14 3.14043604469694E-08 180              3.11891535551189E-11 -2.18265408775012E-14 
                               1.09419101011008E-07 -2.31273923880876E-14 3.26620708120806E-08 180              1.68669185588952E-06 180              3.43120855859584E-06 -2.22377588536421E-14 
                               1.32789904974888E-08 -2.2201227167621E-14 3.0527139467544E-06 180              0.000374688932966882 -179.999999999944 6.63214446171832E-08 180              
                               6.97762984442147E-08 180              2.54656450454484E-10 180              1.48309950027661E-08 -2.32141980221887E-14 
                               1.06972452407417E-07 -180             1.88786146541113E-07 1.62904252712266E-15 2.31091306408292E-09 1.32960684875173E-14 8.42707017275662E-08 180              
                               9.37657490578777E-09 -3.43859697749201E-21 1.58066488616282E-08 180              5.11186699285802E-09 -180             8.33755271652417E-12 -7.92382033406975E-15 
                               9.44479943736944E-09 -4.57565225628381E-17 4.18497238399719E-08 5.74883574561817E-15 2.25019364839347E-08 -1.5239469431183E-19 9.55202255002016E-08 180              
                               9.58169089947424E-10 2.50519012084289E-20 6.50138724013121E-08 -180             6.63214446171833E-08 180              0.000908930880947456 -180             
                               1.17180561858773E-08 -180             4.10865848056518E-11 -1.2432050024242E-20 5.77060289646726E-08 180              
                               4.28563102790994E-08 -180             4.28018384999019E-08 -8.90824494561534E-16 6.09616903444415E-10 1.18397144036896E-14 2.28686105058279E-07 180              
                               5.29717609079746E-09 -180             1.01530716189656E-08 4.76490156530028E-19 5.16454129103E-09 -180             3.92933871735174E-12 -4.87521345653916E-15 
                               4.10309353971311E-09 3.42679712270229E-16 1.68458775552117E-08 -180             1.29138665542313E-08 -180             1.04805045178208E-06 180              
                               2.352386007414E-10 1.79232947331153E-19 1.02766079858087E-07 180              6.97762984442145E-08 180              1.17180561858773E-08 -180             
                               0.000709630039131159 -180             7.92600758369133E-12 -180             1.98162876752179E-09 180              
                               9.70626120243279E-11 -180             5.08303718270272E-11 -7.84082615584082E-15 4.36176665659736E-13 5.93816535882024E-14 4.04235027785952E-09 180              
                               7.42000800727643E-11 -180             1.28002996027948E-10 1.62093824521082E-19 1.27991756912719E-11 -180             6.91534548039138E-15 4.25569605015966E-14 
                               6.9567744099218E-12 2.37015705123833E-14 5.76734736307578E-12 -6.73713724479078E-15 7.05587068199983E-11 -2.45861360839201E-19 1.63199529418878E-10 180              
                               1.06002257550014E-11 1.10103407355328E-20 3.70257723326117E-10 -180             2.54656450454484E-10 180              4.10865848056518E-11 -1.85452180308118E-20 
                               7.92600758369136E-12 -180             0.00154345533873845 -180             1.33286361548318E-11 180              
                               1.19274441991943E-07 -2.91619810035976E-21 1.96785796250648E-07 -180             2.12214117833934E-09 9.95276398309951E-15 6.43207250813861E-08 -2.35508891591271E-20 
                               1.58769906501393E-09 180              1.20666933397358E-08 -180             1.87553561065091E-09 -1.803550782958E-21 8.76307534502154E-13 -180             
                               1.0205771395585E-08 -180             4.54744342397087E-08 7.87370659339452E-15 6.61239459041057E-08 180              1.06930437281022E-07 -180             
                               1.47336725657729E-10 -1.45066986854696E-21 4.27965366155972E-10 1.58438236234721E-13 1.48309950027662E-08 -2.15644597831023E-14 5.77060289646726E-08 -180             
                               1.9816287675218E-09 180              1.33286361548318E-11 180              0.000313860964568868 180              
! Gamma         59.9338166615174 0                76.2426156796652 0                59.9339600657669 0                103.007075203783 0                76.2410632752637 0                76.2412757130702 0                76.2414507655984 0                103.007346135631 0                103.007275917871 0                76.241193602094  0                76.2412015286933 0                103.007089201169 0                59.9337753720983 0                76.2416042269818 0                59.9338843196712 0                103.007660811986 0                76.2418310009107 0                103.00740354457  0                76.2414744941356 0                
! Port Impedance         0                29.2395978405424 0                57.317223168618  0                58.4334632795449 0                28.3625322843726 0                57.4730394160088 0                28.7407495893642 0                57.3997775136693 0                56.6866715284119 0                56.6986745793993 0                57.4745160819323 0                28.7421905058403 0                28.3626785207892 0                58.4938057814233 0                57.3773320964863 0                29.2315945638266 0                56.6785413815199 0                57.357934424224  0                56.6789557995441 0                28.7105521896251 
0.95                           0.000268846614319473 180              3.26525515158508E-06 8.72414718598807E-15 1.33646791999471E-08 -4.00421502220307E-20 7.72801237503297E-07 -9.97127806789564E-15 
                               4.13123587592347E-08 2.41836770258441E-15 2.18567525693664E-06 180              1.02745181156012E-07 -180             3.73942363388041E-10 -5.49378846748187E-21 
                               3.72100403920338E-07 -1.03082497442213E-20 5.25548234224862E-08 -5.39949372751433E-20 1.80953519354681E-06 -5.88107659595343E-21 6.35404388883929E-07 -4.15745810934362E-20 
                               7.18374162802437E-09 -9.42641049894943E-20 7.02906045879981E-07 -180             1.25432120174224E-06 -180             1.15835596327723E-07 180              
                               4.83543451253127E-08 180              1.08508847141069E-10 180              1.30413318053782E-07 -3.38188430026219E-20 
                               3.26525515158507E-06 4.74754555853885E-15 0.00047568629161765 179.999999999986 2.213472688674E-08 -180             6.02744345658526E-08 180              
                               1.23400636391569E-07 -180             6.17970859983082E-07 4.13125739543506E-15 5.60794346837552E-08 4.21295610114048E-15 1.37391431608126E-10 -180             
                               2.04646400200159E-07 -180             1.30614843230593E-07 -180             6.47904106783726E-07 -180             4.42703555981874E-08 -180             
                               6.20759337465507E-09 -180             4.89670357642483E-07 5.5546134089818E-15 6.9703157690912E-07 5.12066428159577E-15 1.95645515337678E-07 4.0916079246374E-15 
                               4.69217864107728E-08 5.11913370146681E-15 5.44812060091157E-11 4.48186290828875E-15 2.07988803682403E-07 -180             
                               1.33646791999471E-08 -3.24781340542635E-20 2.21347268867399E-08 -180             0.000426278637648214 180              6.06816834948683E-09 -1.37143197573072E-14 
                               3.67342078676691E-09 -180             2.95054435389049E-09 3.04580896317984E-20 4.87841103430839E-10 -2.9079268278575E-20 1.06289998752801E-12 180              
                               9.33660336893877E-10 180              2.51670563707562E-09 180              3.01409756300972E-09 180              4.62425413068301E-09 -8.45864037536919E-20 
                               9.07222996467358E-11 -180             5.93856754824661E-09 -6.2533856530934E-15 6.85286845788431E-09 -3.92898821796529E-20 2.34735400783974E-09 -4.57447645757571E-21 
                               6.883773714701E-10 2.65906738222708E-20 4.54438748377602E-13 7.14173176916513E-19 2.35518337778494E-09 7.25645678169492E-21 
                               7.72801237503296E-07 -1.54813704728613E-15 6.02744345658525E-08 -180             6.06816834948684E-09 -2.60419588430821E-15 0.000541605700679959 -179.999999999995 
                               2.76510431944962E-07 -180             2.48045819994918E-06 180              1.79571530805692E-07 -1.99401324276862E-15 1.0497631792923E-10 180              
                               7.29836120771407E-08 180              3.8844506917665E-08 -2.14053216103184E-15 3.33498030093336E-07 180              3.43182828951958E-06 -1.75408396280184E-15 
                               8.44860565717813E-08 -6.46181856180009E-16 2.32109752742137E-06 -4.1526656161846E-14 5.07209802003492E-06 -7.28409376436446E-16 9.12162865629696E-08 180              
                               2.46066888965953E-07 180              4.25920558158145E-09 180              7.11660043984572E-08 -1.54247253433024E-15 
                               4.13123587592347E-08 1.66766956593117E-15 1.23400636391569E-07 -180             3.67342078676691E-09 -180             2.76510431944963E-07 180              
                               0.000911800623184078 179.999999999997 4.76998466891429E-08 1.58987971010356E-15 1.86263208679918E-09 -180             1.79804303551478E-12 -180             
                               2.09669242611833E-09 -180             5.91019762443405E-09 1.70184580701765E-15 3.03177878298882E-08 1.61389554386095E-15 2.88952828744665E-08 1.19135747640913E-15 
                               1.11195109421349E-09 2.04675344691007E-15 5.16026233757851E-08 180              3.60626790356272E-08 -180             1.01851360268088E-08 1.20569453052835E-15 
                               5.84299544353572E-09 -180             7.85022126426442E-11 -180             1.7712860213679E-09 -180             
                               2.18567525693663E-06 180              6.17970859983082E-07 1.15115344652984E-14 2.95054435389049E-09 -1.01719445159696E-20 2.48045819994918E-06 180              
                               4.76998466891428E-08 2.23912838067226E-15 0.000301616458708631 -180             7.41704927756204E-08 4.70778839684455E-20 6.92701067185143E-10 -180             
                               9.88812983407648E-08 -2.36952686205229E-20 3.22548093946478E-08 180              4.17330168383051E-07 -180             2.81363614736607E-07 1.7665167040718E-19 
                               3.28952110397052E-09 180              6.12098311478051E-07 -1.29739100670153E-16 2.14341190002217E-06 3.70743692242786E-20 1.7536165677573E-08 -180             
                               1.14166020248767E-08 -3.03091158958159E-19 1.38203200629332E-10 -4.2629787136722E-19 1.34811849969909E-08 -180             
                               1.02745181156012E-07 180              5.60794346837554E-08 8.57896005694412E-15 4.87841103430837E-10 -5.46344602420094E-20 1.79571530805692E-07 -7.54052557584947E-15 
                               1.86263208679919E-09 -180             7.41704927756203E-08 2.77022585250504E-20 0.000998396481698083 180              3.01686486465152E-11 180              
                               1.47418169489475E-08 -7.51817926990856E-21 1.98364120557651E-09 180              3.87950987855585E-07 180              3.16581978017704E-07 -2.52003229612303E-20 
                               8.1095294788879E-10 -1.82440329090945E-19 1.19324846260409E-07 -180             1.78757487601432E-08 180              5.65603026945748E-09 180              
                               5.67718515035099E-09 180              1.42681033800138E-11 180              2.09481370126196E-09 -7.02706812045068E-20 
                               3.73942363388041E-10 -1.2037927602834E-20 1.37391431608126E-10 -180             1.06289998752801E-12 180              1.0497631792923E-10 180              
                               1.79804303551478E-12 180              6.92701067185143E-10 180              3.01686486465152E-11 -180             0.0021658933034282 180              
                               1.69700476742528E-11 180              5.45534373727638E-12 1.55302866569451E-20 9.29170881128161E-11 1.62035058113895E-21 2.11100055292453E-10 180              
                               8.29025273213398E-13 180              4.17828721986428E-11 2.58436878739583E-14 2.4606925164848E-11 -1.8736846792718E-19 9.21887172532572E-12 -2.95763688278189E-20 
                               4.3610925578259E-12 -3.40860788341751E-20 8.0264991202283E-15 1.47433640645785E-20 9.95115042729754E-13 180              
                               3.72100403920338E-07 -1.42826682350558E-20 2.04646400200159E-07 -180             9.33660336893878E-10 180              7.29836120771405E-08 180              
                               2.09669242611833E-09 -180             9.88812983407648E-08 -1.41475220814389E-20 1.47418169489475E-08 -3.93473787719449E-21 1.69700476742528E-11 180              
                               0.000912274960553239 180              3.16787916925737E-09 180              3.14316235283837E-07 180              8.94576462990428E-08 180              
                               6.21777758335057E-10 180              6.70437997976921E-08 3.93739079203094E-15 1.17799967362414E-07 -5.78297464695595E-21 1.01410575719112E-08 -3.15840206835062E-20 
                               4.54389203863436E-09 -3.05899484626704E-20 7.75457179394147E-12 -9.13497534212371E-20 1.10350787845986E-08 180              
                               5.25548234224861E-08 -1.56571114293889E-19 1.30614843230593E-07 -180             2.51670563707561E-09 180              3.88445069176651E-08 -1.10154642619214E-15 
                               5.91019762443405E-09 1.60300394386518E-15 3.22548093946477E-08 -180             1.98364120557651E-09 -180             5.45534373727638E-12 6.33578312664557E-20 
                               3.16787916925738E-09 180              0.0025298517556136 180              5.92172052152182E-08 180              2.8320421626746E-07 180              
                               1.16967927140502E-09 2.23670832321078E-20 5.95919519837919E-08 180              3.67118936837008E-08 -180             4.42491683234098E-08 -1.09195348177432E-20 
                               1.82127430252432E-08 -180             6.00132624201163E-12 -5.67037299183289E-20 4.85772411451655E-08 1.01727549541696E-20 
                               1.8095351935468E-06 -8.92547898420977E-21 6.47904106783727E-07 -180             3.01409756300972E-09 180              3.33498030093337E-07 180              
                               3.03177878298881E-08 -3.10606363000853E-15 4.1733016838305E-07 180              3.87950987855584E-07 -180             9.2917088112816E-11 7.93175134272839E-21 
                               3.14316235283837E-07 180              5.92172052152183E-08 -180             0.000923417760969603 -180             2.29717645715604E-06 1.19747077653206E-20 
                               2.8063722580774E-09 1.50001891134249E-19 6.33903373522366E-07 180              1.83398181777192E-06 -180             2.47590026025182E-08 -5.2256312935747E-20 
                               1.4344775977938E-08 -180             7.77394268235116E-11 -7.44166717291945E-20 7.1802308043457E-08 180              
                               6.3540438888393E-07 7.87977672697561E-20 4.42703555981879E-08 180              4.62425413068299E-09 -2.10633877220103E-19 3.43182828951959E-06 -1.36868320814259E-14 
                               2.88952828744665E-08 1.81455216683073E-14 2.81363614736606E-07 1.57948587612673E-19 3.16581978017704E-07 1.56753860263166E-20 2.11100055292453E-10 -180             