! Touchstone file exported from HFSS 2020.2.0
!        Generated:      10:27:34  avr. 27, 2020
!        Design:         test
!        Project:        test_multiport
!        Setup:          Setup1
!        Solution:       Sweep
!
!Data is not renormalized
# GHZ S MA
! Terminal data exported
! Port[1] = 1
! Port[2] = 2
! Port[3] = 3
! Port[4] = 4
! Port[5] = 5
! Port[6] = 6
! Port[7] = 7
! Port[8] = 8
! Port[9] = 9
! Port[10] = 10
! Port[11] = 11
! Port[12] = 12
! Port[13] = 13
! Port[14] = 14
! Port[15] = 15
! Port[16] = 16
! Port[17] = 17
! Port[18] = 18
0.9                            0.000191417801012284 -180             3.10511791846359E-06 -3.76186838908232E-15 1.24801391401429E-08 3.73593933662422E-20 7.06958015954236E-07 -1.04925125126497E-15 
                               3.75295634038538E-08 1.07862071785935E-19 2.05365876271827E-06 180              7.40290551741178E-08 180              2.27089867357494E-10 1.68671255381079E-14 
                               3.24393355482809E-07 2.31462921572547E-20 4.56523006151323E-08 3.15114791122852E-20 1.69244135482477E-06 1.18536349475853E-21 5.86419626607456E-07 5.48740121475319E-21 
                               6.3199231746969E-09 2.79380868258672E-16 6.43885559779033E-07 180              1.13950341681979E-06 180              1.08245911116822E-07 -180             
                               4.5240136662654E-08 -180             8.9765937603131E-11 180              
                               3.10511791846359E-06 3.95996118387654E-15 0.000427741637119228 179.999999999985 2.1270571078578E-08 -180             5.33727572069442E-08 -180             
                               1.13222249155466E-07 -180             5.69579131197592E-07 -8.12196143886594E-15 3.99472504361857E-08 3.74716160072965E-15 8.2242330281941E-11 -180             
                               2.20455330563504E-07 -180             1.14723436932E-07 -180             5.96313333305076E-07 -180             4.33393079200764E-08 -180             
                               5.49922256231896E-09 -180             4.48913864568496E-07 4.02724827479937E-15 6.22220811439761E-07 3.62015669367744E-15 1.88210644979302E-07 3.80536810281048E-15 
                               4.4549952479825E-08 3.33039295148693E-15 4.25649733795489E-11 3.61534644919591E-15 
                               1.24801391401429E-08 -2.38802639560098E-20 2.1270571078578E-08 -180             0.000306316259029216 180              5.56902281465227E-09 -1.88759318944781E-14 
                               3.35587858790624E-09 180              2.63075405119969E-09 -1.86584264513663E-14 3.40200044411653E-10 -6.2756044670884E-20 6.25008791803097E-13 -180             
                               9.50590735719287E-10 180              2.17017786869396E-09 180              2.69741840053024E-09 180              4.17564777236904E-09 -8.91715286550601E-20 
                               8.00695581178774E-11 -180             5.38631906890928E-09 -6.20976410201736E-20 5.9596853807601E-09 -1.11920324342278E-19 2.41542239476511E-09 -3.0796709508193E-21 
                               6.52887797816289E-10 3.4512380781651E-20 2.92269071639902E-13 1.48907628803652E-18 
                               7.06958015954235E-07 -3.92940605307471E-15 5.33727572069428E-08 -180             5.56902281465227E-09 -3.5213279152925E-15 0.000224261191400066 -179.999999999992 
                               2.59950404565779E-07 180              2.34417878695741E-06 180              1.32446109815603E-07 -3.94411958441472E-15 8.48516959053964E-11 -180             
                               7.35990202555648E-08 180              3.22446419523932E-08 -3.80113889586662E-15 3.04070948502869E-07 180              3.25909894029522E-06 -3.16480248698194E-15 
                               7.80550846583445E-08 -4.41782961957422E-15 2.29675624615368E-06 -3.86411742089001E-15 4.66955050762182E-06 -3.50942905502199E-15 8.43040817020251E-08 180              
                               2.34937778611253E-07 180              3.86291547589667E-09 180              
                               3.75295634038539E-08 1.01023443157768E-19 1.13222249155466E-07 180              3.35587858790624E-09 -180             2.59950404565777E-07 180              
                               0.00220662971614183 -180             4.42555453928217E-08 -1.60637837692047E-14 1.26546787349475E-09 180              7.85020319019894E-13 -180             
                               1.94534198053973E-09 -180             4.94208307113149E-09 2.48112770479601E-21 2.68284120630939E-08 -2.2568427391428E-20 2.67641165230288E-08 1.70653855940398E-19 
                               9.82207299868769E-10 -4.22675428912535E-15 4.65721623122134E-08 180              3.09116884865316E-08 180              9.15560396112966E-09 -1.5290071137245E-21 
                               5.45160795562369E-09 -180             6.87927849580055E-11 -180             
                               2.05365876271828E-06 180              5.69579131197591E-07 -9.46476612576461E-15 2.63075405119968E-09 -6.82284851536988E-15 2.3441787869574E-06 180              
                               4.42555453928217E-08 -6.73231948283281E-15 0.000255781006587075 -179.999999999962 5.39208559740198E-08 -7.12402618464394E-15 4.79116843389091E-10 -180             
                               9.44578012907323E-08 -6.34065031233272E-15 2.70416903487348E-08 180              3.83843189292388E-07 180              2.57409618973332E-07 -7.07534796945218E-15 
                               2.89344302041142E-09 180              5.70982050340325E-07 -7.2437735841445E-15 1.9609382454809E-06 -6.46304866761724E-15 1.56498469879498E-08 180              
                               1.03976470227249E-08 -6.75067904143058E-15 1.2419090452278E-10 -6.17262839784377E-15 
                               7.4029055174118E-08 -180             3.99472504361857E-08 -4.08169855163507E-15 3.40200044411653E-10 -2.12300893199262E-20 1.32446109815603E-07 -1.30856811326654E-14 
                               1.26546787349475E-09 180              5.39208559740198E-08 -1.55797785703548E-14 0.00201216414305028 -180             1.38744711956198E-11 -180             
                               1.15239928156324E-08 1.24058109899385E-20 1.37692998020055E-09 -180             2.81535637181083E-07 180              2.39555404295013E-07 -2.65538314125488E-20 
                               5.8444802108478E-10 3.61115927661941E-15 9.82608748706184E-08 -180             7.5129368231925E-09 -1.40543392108912E-18 4.01191379234932E-09 180              
                               4.27501441101237E-09 180              9.58913058170107E-12 180              
                               2.27089867357494E-10 7.33750370448286E-15 8.22423302819414E-11 -180             6.25008791803096E-13 -180             8.48516959053968E-11 -180             
                               7.85020319019894E-13 -180             4.79116843389091E-10 180              1.38744711956197E-11 -180             0.00339676217233675 179.999999999997 
                               9.70749773764178E-12 -180             2.81208537845457E-12 8.10222375728526E-15 5.28907423480788E-11 8.53662721768662E-15 1.25801612510311E-10 -180             
                               5.17122666097643E-13 -180             3.50426705902559E-11 7.92278651423909E-15 3.79163628229094E-11 7.89378779640029E-15 5.46117671601285E-12 8.23231098760949E-15 
                               2.79998718291662E-12 7.9187740106666E-15 5.16447991829034E-15 8.28761454555499E-15 
                               3.24393355482809E-07 2.05189758627871E-20 2.20455330563503E-07 180              9.50590735719285E-10 -180             7.35990202555648E-08 -180             
                               1.94534198053973E-09 -180             9.44578012907322E-08 -1.47457365954664E-14 1.15239928156324E-08 -1.6005675577738E-22 9.7074977376418E-12 -180             
                               0.00168287244619647 -180             3.30024977839958E-09 -180             3.2202039509911E-07 -180             8.51914460979027E-08 -180             
                               5.88051488359305E-10 -180             6.58074070277378E-08 -4.07687618864883E-22 1.13552521105344E-07 -1.15514731683347E-20 1.03122675255226E-08 2.92810407605893E-20 
                               4.60689524221117E-09 1.47791557077399E-20 7.14358178346031E-12 1.02513828513908E-21 
                               4.56523006151324E-08 2.92657084022889E-20 1.14723436932E-07 180              2.17017786869396E-09 -180             3.22446419523932E-08 -7.34159358182882E-15 
                               4.9420830711315E-09 2.19737272770145E-21 2.70416903487348E-08 180              1.37692998020055E-09 180              2.81208537845457E-12 2.2699814530558E-14 
                               3.30024977839959E-09 -180             0.00108374034497782 -180             5.2103077415475E-08 -180             2.42971976845785E-07 -180             
                               9.5826507217241E-10 2.44395918829786E-15 5.11858769177727E-08 -180             3.01765315431096E-08 -180             3.80333949288187E-08 3.97652872715147E-21 
                               1.61787339837391E-08 180              5.5497471346748E-12 2.16248746631471E-19 
                               1.69244135482477E-06 -5.34188395634256E-22 5.96313333305077E-07 -180             2.69741840053024E-09 180              3.04070948502869E-07 180              
                               2.6828412063094E-08 -5.30752521029763E-20 3.83843189292389E-07 180              2.81535637181083E-07 180              5.28907423480786E-11 2.36835961815991E-14 
                               3.2202039509911E-07 -180             5.21030774154749E-08 -180             0.000492972554787863 -180             2.1764590149462E-06 8.8015271486258E-21 
                               2.46800714692694E-09 7.46374599603651E-15 5.84587812136427E-07 180              1.66878080290466E-06 180              2.25033203528297E-08 -1.07475601944201E-20 
                               1.33493664437787E-08 -180             6.9493639631904E-11 -3.05295662111406E-19 
                               5.86419626607457E-07 -3.64841942449758E-20 4.33393079200764E-08 -180             4.17564777236902E-09 -2.27550015146216E-20 3.25909894029522E-06 -6.0369834152959E-15 
                               2.67641165230288E-08 2.51980928548753E-19 2.57409618973331E-07 -1.18811625163351E-14 2.39555404295011E-07 -1.54809723383228E-20 1.25801612510311E-10 -180             
                               8.51914460979027E-08 180              2.42971976845785E-07 -180             2.1764590149462E-06 4.79686534797742E-21 0.00119670662702631 -180             
                               4.88583762379323E-08 -3.1223675027082E-15 2.27201045360612E-06 -2.74236879513472E-20 3.3917275050558E-06 -3.60015015127173E-20 9.49931151194789E-08 180              
                               1.09195998472981E-06 180              1.43059870473937E-10 180              
                               6.3199231746969E-09 -4.86585932662777E-15 5.49922256231897E-09 -180             8.00695581178774E-11 180              7.80550846583444E-08 -5.40571986395441E-15 
                               9.8220729986877E-10 -4.30721474696791E-15 2.89344302041141E-09 180              5.84448021084777E-10 -5.15061265670432E-15 5.17122666097642E-13 -180             
                               5.88051488359305E-10 180              9.58265072172408E-10 -4.59184042512701E-15 2.46800714692694E-09 -4.09012656618783E-15 4.88583762379323E-08 -5.13287536978402E-15 
                               0.000504796345901948 -179.99999999999 3.44404899359788E-08 -4.85637695938121E-15 1.31753412038758E-08 -4.54294947402928E-15 9.64176405908727E-10 -5.16809355721392E-15 
                               2.75108480377345E-10 -4.65312474320751E-15 1.02758267076707E-11 -4.90137550734755E-15 
                               6.43885559779035E-07 180              4.48913864568494E-07 -1.14987479194293E-15 5.38631906890928E-09 -2.36188520308357E-20 2.29675624615368E-06 -7.9336432453165E-15 
                               4.65721623122134E-08 180              5.70982050340326E-07 -2.82019532150738E-14 9.82608748706182E-08 -180             3.5042670590256E-11 1.80623614092759E-14 
                               6.58074070277378E-08 1.01417976352922E-20 5.11858769177726E-08 -180             5.84587812136429E-07 180              2.27201045360612E-06 -3.19310032871248E-20 
                               3.44404899359787E-08 -1.87493521111293E-14 0.00063780343576203 -180             3.07647350557258E-06 -180             6.51394407714586E-08 180              
                               1.06936252524695E-07 180              3.55438802885399E-10 180              
                               1.13950341681979E-06 -180             6.22220811439763E-07 -5.17286350577916E-15 5.9596853807601E-09 -5.81153205168113E-20 4.66955050762183E-06 -1.36365183986441E-14 
                               3.09116884865316E-08 180              1.9609382454809E-06 -1.23413340951714E-14 7.51293682319231E-09 -1.45349184541948E-18 3.79163628229092E-11 -1.99755005222373E-14 
                               1.13552521105344E-07 4.10659608835582E-20 3.01765315431097E-08 -180             1.66878080290466E-06 180              3.3917275050558E-06 -6.82317210297656E-20 
                               1.31753412038759E-08 2.03234764877998E-16 3.07647350557258E-06 -180             0.000204376567401687 -180             6.50612786585995E-08 180              
                               7.07453077893519E-08 180              2.3745737829182E-10 180              
                               1.08245911116822E-07 180              1.88210644979302E-07 8.08437020756774E-15 2.41542239476511E-09 -7.55395340798812E-21 8.43040817020252E-08 180              
                               9.15560396112965E-09 -3.61263792954888E-20 1.56498469879497E-08 180              4.01191379234932E-09 180              5.46117671601285E-12 1.60338905111498E-14 
                               1.03122675255227E-08 -2.48317382360823E-20 3.80333949288186E-08 -2.41005092570108E-21 2.25033203528297E-08 -3.9325341602602E-20 9.49931151194789E-08 180              
                               9.64176405908723E-10 -4.6239219191391E-15 6.51394407714585E-08 180              6.50612786585991E-08 180              0.000793396784140143 180              
                               1.22235858262283E-08 -180             4.01344535927428E-11 -8.02268238311845E-20 
                               4.5240136662654E-08 180              4.45499524798249E-08 2.45684729893408E-15 6.52887797816289E-10 1.77259041734805E-20 2.34937778611253E-07 180              
                               5.45160795562371E-09 -180             1.03976470227248E-08 -1.62071574337136E-14 4.27501441101234E-09 180              2.79998718291662E-12 1.91409345836879E-14 
                               4.60689524221117E-09 -3.52337979114957E-20 1.61787339837391E-08 180              1.33493664437787E-08 -180             1.09195998472982E-06 180              
                               2.75108480377344E-10 -2.40129120015473E-14 1.06936252524694E-07 180              7.07453077893518E-08 180              1.22235858262283E-08 -180             
                               0.00126078161925425 -180             8.66069492963506E-12 -180             
                               8.97659376031312E-11 180              4.25649733795486E-11 -1.54974946308676E-14 2.92269071639903E-13 9.65412521261878E-19 3.86291547589668E-09 180              
                               6.87927849580054E-11 -180             1.2419090452278E-10 -1.19010432003364E-14 9.58913058170112E-12 180              5.16447991829034E-15 1.01511327667465E-14 
                               7.1435817834603E-12 -4.7875626577096E-19 5.5497471346748E-12 3.08415263725062E-19 6.94936396319041E-11 -2.08486584807359E-19 1.43059870473937E-10 180              
                               1.02758267076708E-11 -2.64588608943085E-15 3.554388028854E-10 180              2.3745737829182E-10 180              4.01344535927427E-11 -9.94197057933585E-20 
                               8.66069492963506E-12 -180             0.00140580177908556 -180             
! Gamma         59.933805297718  0                76.2426156796652 0                59.9340018325797 0                103.007060346401 0                76.2410617018449 0                76.2412528326597 0                76.2415982241939 0                103.007387378113 0                103.00765978109  0                76.2411353529909 0                76.2412013780756 0                103.007100666905 0                59.933766786207  0                76.2415272531181 0                59.9340535972109 0                103.007660549891 0                76.2419409586937 0                103.007401381871 0                
! Port Impedance         0                29.2415989048506 0                57.317223168618  0                58.4339501116571 0                28.362330625831  0                57.4756959055828 0                28.7435038312174 0                57.364391346673  0                56.683587315792  0                56.7011249104727 0                57.4738464637636 0                28.7421911791249 0                28.362823234232  0                58.4898315650239 0                57.3961036623985 0                29.2141846588586 0                56.67863534998   0                57.3321791356534 0                56.6791643484509 
0.95                           0.000188230887823604 180              3.23564659007749E-06 1.99860095458356E-14 1.39188154273217E-08 -4.60474792218333E-15 7.82738986119397E-07 2.0257831489908E-15 
                               4.17775350271367E-08 -2.19778961632578E-19 2.22226997555531E-06 -180             8.08494092444227E-08 -180             2.4526702380201E-10 8.08136984558996E-20 
                               3.18177700723602E-07 -5.75357970260825E-20 5.08859783585692E-08 -1.05650503735226E-19 1.83815597148995E-06 -9.32450954316118E-21 6.49097828015425E-07 -2.26936640588313E-20 
                               7.37506538499928E-09 -9.16055547298241E-15 7.1279976567763E-07 -180             1.2583265068601E-06 -180             1.17257278424489E-07 180              
                               5.10384505469982E-08 180              1.00352066299553E-10 -180             
                               3.2356465900775E-06 6.89966661635775E-15 0.000425448012749685 179.999999999979 2.264821534661E-08 180              5.76462668145548E-08 -180             
                               1.22431975921874E-07 -180             6.1795125342618E-07 2.91982320725973E-14 4.3824693578406E-08 1.23363357697402E-14 8.93762022208567E-11 -180             
                               2.2859252653486E-07 -180             1.23813087964362E-07 -180             6.46435786352065E-07 -180             4.64344836076883E-08 -180             
                               6.27364105728885E-09 -180             4.91047860579092E-07 6.71309485749057E-15 6.88650581582471E-07 6.37301138337254E-15 1.95050548979137E-07 6.59585111124292E-15 
                               4.8819563169766E-08 7.08573471523075E-15 4.54523408480689E-11 6.85569161612076E-15 
                               1.39188154273217E-08 -1.90031990243885E-15 2.26482153466101E-08 180              0.000306372001477318 179.999999999999 6.28953552038928E-09 -4.72575271293427E-15 
                               3.74060442712419E-09 180              3.02379897556062E-09 1.51954275429832E-14 3.949681008154E-10 -7.40445997401372E-16 7.19848730612829E-13 180              
                               1.05750726129607E-09 180              2.43062119137666E-09 180              3.0983371212285E-09 180              4.74740353027695E-09 -2.71702945017738E-15 
                               9.43535714018913E-11 180              6.140209459831E-09 -1.53817702050318E-15 6.94563258260947E-09 -2.28584337171031E-15 2.45478718031477E-09 -2.09152866758849E-15 
                               7.36536012394583E-10 -2.28449484876436E-15 2.91954977545765E-13 -2.62956660174835E-15 
                               7.82738986119399E-07 2.24409927048912E-15 5.76462668145557E-08 180              6.28953552038929E-09 -8.18186598455976E-15 0.00021373642908673 179.999999999984 
                               2.76841208662041E-07 -180             2.48164866286498E-06 -180             1.43924546027239E-07 1.88248638570625E-14 9.32996728025237E-11 -180             
                               8.02487789168924E-08 -180             3.57986697405038E-08 1.86801307249021E-15 3.34000681986888E-07 -180             3.45545703422098E-06 1.89602915314519E-15 
                               8.52734914189956E-08 -1.04721377480035E-14 2.38888422341108E-06 1.73542317606004E-15 4.99841993443587E-06 2.36819078909362E-15 9.12524090098593E-08 -180             
                               2.52737813226969E-07 -180             4.07155392912505E-09 -180             
                               4.17775350271368E-08 -1.38443087994735E-19 1.22431975921874E-07 -180             3.74060442712419E-09 180              2.76841208662041E-07 180              
                               0.00219081548519706 -180             4.72788580387773E-08 1.1147528711848E-14 1.42869596055218E-09 -180             8.2526588013619E-13 -180             
                               2.13647045957099E-09 180              5.46589766845934E-09 3.37080668313516E-20 3.00130637806845E-08 2.0418766589494E-20 2.95728025624113E-08 8.12820877505847E-20 
                               1.11806345722721E-09 -6.53925894319706E-15 5.12728706985708E-08 180              3.47977327071166E-08 180              9.95222282787678E-09 -3.25831267716231E-20 
                               6.01402724091381E-09 -180             7.27324603692467E-11 -180             
                               2.22226997555531E-06 -180             6.17951253426179E-07 2.64069807960864E-14 3.02379897556063E-09 1.3765717547909E-14 2.48164866286498E-06 -180             
                               4.72788580387773E-08 1.15619364744718E-14 0.000253322433960146 179.999999999956 5.87579643860995E-08 1.59596579341626E-14 5.14381051999191E-10 -180             
                               1.01214156180329E-07 1.17021330290243E-14 3.02835031690282E-08 -180             4.16900642594564E-07 -180             2.82612764607041E-07 1.0543120992701E-14 
                               3.3175856338523E-09 -180             6.19100672141716E-07 1.05241718224991E-14 2.12141776820677E-06 1.213448603913E-14 1.73657042699132E-08 -180             
                               1.16966699893611E-08 1.10020413536841E-14 1.34152344499621E-10 9.98597528432688E-15 
                               8.0849409244423E-08 -180             4.3824693578406E-08 2.23894981760162E-14 3.94968100815399E-10 8.24309776621454E-15 1.43924546027239E-07 9.29078015273403E-16 
                               1.42869596055218E-09 -180             5.87579643860995E-08 2.38328533516354E-14 0.0019992045632945 179.999999999996 1.51691597901776E-11 -180             
                               1.22234357780419E-08 5.29551578896632E-15 1.54357721186043E-09 -180             3.00718971508707E-07 -180             2.57005795036474E-07 4.49365306233472E-15 
                               6.59789770340959E-10 -2.319572004859E-16 1.03076638608106E-07 -180             1.9785018153584E-08 2.8233600429775E-15 4.4486188630026E-09 -180             
                               4.70688231578839E-09 -180             1.07157888620014E-11 -180             
                               2.45267023802009E-10 1.13966660597566E-19 8.93762022208567E-11 -180             7.19848730612831E-13 -180             9.32996728025238E-11 180              
                               8.25265880136192E-13 -180             5.14381051999188E-10 -180             1.51691597901776E-11 -180             0.00338011167630192 180              
                               1.01952419086656E-11 -180             3.14476097544524E-12 1.80169568667691E-19 5.7585447950394E-11 1.08135013883525E-19 1.37820642773283E-10 -180             
                               5.86467312232117E-13 -180             3.65518394043237E-11 -2.07693160312994E-19 3.51605254028792E-11 -8.10537297620227E-19 6.05939243191802E-12 3.94062960646398E-21 
                               3.1171386318957E-12 -1.07183264747288E-19 5.97235486271429E-15 -5.82824324966555E-19 
                               3.18177700723602E-07 -4.32858392226385E-20 2.2859252653486E-07 -180             1.05750726129607E-09 -180             8.02487789168924E-08 -180             
                               2.13647045957098E-09 180              1.01214156180329E-07 1.64787757119869E-14 1.22234357780419E-08 9.31437179103009E-15 1.01952419086656E-11 -180             
                               0.00167951952927747 180              3.62688686361916E-09 180              3.39539128037092E-07 180              9.20034779660838E-08 -180             
                               6.73921043773017E-10 180              7.11735035473961E-08 -2.75613393672687E-20 1.22229945345717E-07 -1.35467990756519E-20 1.10718691919749E-08 -4.61854166993575E-20 
                               5.09908196505443E-09 4.71809210860273E-21 7.95596560608679E-12 3.46949260528826E-19 
                               5.08859783585692E-08 -7.14039967070612E-21 1.23813087964362E-07 -180             2.43062119137666E-09 -180             3.57986697405038E-08 3.50546353956599E-15 
                               5.46589766845935E-09 1.52413021094186E-21 3.02835031690283E-08 -180             1.54357721186043E-09 -180             3.14476097544524E-12 1.10051690349297E-19 
                               3.62688686361916E-09 180              0.00107775004811572 180              5.58130717315721E-08 180              2.58817638274644E-07 180              
                               1.09154882523035E-09 -6.90132717184911E-15 5.6158532617421E-08 -180             3.394182715371E-08 -180             4.02742550825458E-08 -2.53778286175863E-21 
                               1.75036256105726E-08 -180             5.81621116730789E-12 -6.84050951007466E-20 
                               1.83815597148995E-06 -1.42493696732217E-20 6.46435786352067E-07 -180             3.09833712122851E-09 180              3.34000681986888E-07 -180             
                               3.00130637806844E-08 4.08672127216688E-20 4.16900642594564E-07 -180             3.00718971508708E-07 -180             5.7585447950394E-11 6.71523363566966E-20 
                               3.39539128037092E-07 180              5.58130717315719E-08 180              0.000488183065011971 180              2.30591667395226E-06 -1.43229008437688E-21 
                               2.83657246278217E-09 -7.66330507992958E-15 6.33726245090364E-07 -180             1.81432919245785E-06 -180             2.47606645380686E-08 -8.42585945844238E-20 
                               1.4826236673958E-08 -180             7.66597781195536E-11 1.10577031928596E-20 
                               6.49097828015429E-07 1.76099685470393E-21 4.64344836076884E-08 180              4.74740353027695E-09 1.73368443374425E-17 3.45545703422099E-06 3.07253522771627E-15 
                               2.95728025624112E-08 -4.0121204568705E-20 2.82612764607042E-07 1.3541851742686E-14 2.57005795036475E-07 7.54350584530115E-15 1.37820642773283E-10 -180             
                               9.20034779660839E-08 -180             2.58817638274644E-07 -180             2.30591667395227E-06 -2.4561015783288E-21 0.00118508236957115 180              
                               5.36060379256168E-08 -4.73806025233737E-15 2.36709153692598E-06 6.15063914547946E-21 3.64861941985643E-06 1.23801221944169E-20 1.02134424192713E-07 -180             
                               1.14941036981529E-06 -180             1.58291480821223E-10 -180             
                               7.37506538499928E-09 -3.98837577074266E-15 6.27364105728885E-09 -180             9.43535714018911E-11 180              8.52734914189955E-08 -2.03042811338914E-16 
                               1.11806345722721E-09 -3.70891105627011E-15 3.3175856338523E-09 -180             6.59789770340958E-10 1.24206897501089E-14 5.86467312232116E-13 180              
                               6.73921043773016E-10 180              1.09154882523035E-09 -3.37302284638667E-15 2.83657246278217E-09 -3.76760638310035E-15 5.36060379256169E-08 -3.96347072049395E-15 
                               0.000500468954271249 -179.999999999988 3.68998733738834E-08 -3.91979989527113E-15 1.47365013642007E-08 -3.78871957155848E-15 1.07274411318676E-09 -3.30979410581577E-15 
                               1.98973525736509E-10 -3.52594716122264E-15 1.12870611129331E-11 -2.8908186048578E-15 
                               7.12799765677632E-07 -180             4.91047860579094E-07 6.65519172397622E-15 6.14020945983101E-09 9.59850477472283E-15 2.38888422341108E-06 -1.16765210634215E-14 
                               5.12728706985708E-08 180              6.19100672141716E-07 1.94925130208243E-14 1.03076638608107E-07 -180             3.65518394043236E-11 -9.51964118855447E-20 
                               7.1173503547396E-08 4.27632791932701E-20 5.61585326174211E-08 -180             6.33726245090363E-07 180              2.36709153692598E-06 -4.46733531685495E-20 
                               3.68998733738833E-08 -1.05331718085883E-14 0.000634530542694689 -180             3.2012751715664E-06 -180             7.04893611765053E-08 180              
                               1.12254007734142E-07 180              3.81121118229854E-10 180              