! Touchstone file exported from HFSS 2020.2.0
!        Generated:      10:19:11  avr. 27, 2020
!        Design:         HFSSDesign1
!        Project:        test_multiport
!        Setup:          Setup1
!        Solution:       Sweep
!
!Data is not renormalized
# GHZ S MA
! Terminal data exported
! Port[1] = 1
! Port[2] = 2
! Port[3] = 3
! Port[4] = 4
! Port[5] = 5
! Port[6] = 6
! Port[7] = 7
! Port[8] = 8
! Port[9] = 9
! Port[10] = 10
! Port[11] = 11
! Port[12] = 12
! Port[13] = 13
! Port[14] = 14
! Port[15] = 15
! Port[16] = 16
! Port[17] = 17
! Port[18] = 18
! Port[19] = 19
! Port[20] = 20
! Port[21] = 21
! Port[22] = 22
0.9                            0.000240203798183014 180              2.93290299032045E-06 -4.35506601849773E-21 1.18437149164666E-08 -1.17917133703396E-20 6.99302160620692E-07 -1.98627056640596E-14 
                               3.33827496416073E-08 8.25032077171404E-20 2.00113268316242E-06 -180             7.3614001389636E-08 -180             1.22309290899965E-10 -1.49046642411503E-14 
                               3.22956148558611E-07 -2.2350245798789E-15 4.36668799345103E-08 3.51184586979731E-21 1.65739179640984E-06 9.00069108320085E-21 5.91341832525476E-07 -9.79159300762246E-20 
                               6.30855384716814E-09 -1.88508708058914E-19 6.3598530196485E-07 -180             1.13309032782643E-06 -180             1.07323770015096E-07 180              
                               4.5021941653706E-08 180              8.04467366318301E-11 180              1.14525591835196E-07 4.60531339926796E-15 2.87163292501344E-08 -2.04480087130582E-15 
                               1.40513693202529E-17 180              6.5122015349075E-06 -2.41259366470983E-20 
                               2.93290299032045E-06 -5.53916979575823E-21 0.000380087354042491 180              2.10402719988119E-08 180              4.54551504313595E-08 180              
                               1.04108153149211E-07 -180             5.61192464419354E-07 1.52935674093934E-14 4.04003304369192E-08 4.30086248641959E-20 4.58420127442585E-11 180              
                               1.88580113892267E-07 180              1.0611539791296E-07 -180             6.05409893198406E-07 -180             5.58841952652821E-08 180              
                               5.52766989890787E-09 180              4.47096298545469E-07 5.61778636205951E-20 6.25213344434047E-07 9.88805997265378E-20 1.87548184625393E-07 -4.31599475129492E-21 
                               4.42151694045542E-08 -4.07942725086463E-20 3.24932678574247E-11 -8.82300398215403E-19 1.89131670641706E-07 -180             1.00782758046589E-08 5.16271966255769E-15 
                               1.36740840945857E-18 -180             1.23740207228477E-06 180              
                               1.18437149164666E-08 -8.12907236079371E-21 2.10402719988119E-08 180              0.000435722347705059 180              5.38444386479052E-09 3.02188836025503E-15 
                               3.01532085354743E-09 180              2.48681883796553E-09 1.52896991955606E-14 3.27491390071909E-10 1.08023832192604E-20 3.66188651239507E-13 180              
                               7.84511371789718E-10 180              1.91397913058468E-09 -180             2.59654498112784E-09 -180             3.95709921825944E-09 5.14469039106273E-21 
                               7.69416873335881E-11 -180             5.11836890859325E-09 8.32123331027768E-21 5.69770629287342E-09 1.87550442168164E-20 2.3031461176499E-09 -7.33419901711118E-22 
                               6.10820401894903E-10 2.5496560538737E-21 1.11727016425877E-13 5.46723153584843E-20 1.95888691063803E-09 1.0881543246589E-14 5.63250936907795E-11 -5.83731821804747E-15 
                               7.17596012533726E-20 180              9.57053169828855E-09 180              
                               6.9930216062069E-07 -8.53048094268437E-15 4.54551504313595E-08 180              5.38444386479051E-09 -7.73049685666357E-15 0.000297591310298495 -179.999999999982 
                               2.37632279145288E-07 180              2.35007832285185E-06 -180             1.33269609411192E-07 -7.46280207491238E-15 1.28335149059649E-10 180              
                               6.41400932148779E-08 180              3.20768498367227E-08 -7.23809738352657E-15 3.03436155123992E-07 180              3.30393907086441E-06 -7.75880581866786E-15 
                               7.90208562325654E-08 -8.17722721624007E-15 2.25592791583792E-06 -7.29640588773654E-15 4.70674685602887E-06 -8.20880805909417E-15 8.44555591567016E-08 180              
                               2.35638967692892E-07 180              3.70711973517771E-09 180              6.16323817295987E-08 -5.02062093059774E-15 4.09192629017722E-09 -3.05649887489042E-15 
                               3.94015220907557E-18 -3.07583191178175E-14 1.09043017073148E-06 180              
                               3.33827496416073E-08 6.4715677095188E-20 1.04108153149211E-07 180              3.01532085354743E-09 180              2.37632279145287E-07 180              
                               0.00211619427269916 -180             4.04023123797124E-08 2.54476621546336E-14 1.18371578217704E-09 180              7.07747450454107E-13 -8.3678192944384E-14 
                               1.64397075133208E-09 180              4.2911591480029E-09 3.95753535713707E-20 2.46763978293535E-08 -9.96810439364974E-20 2.44927587791177E-08 8.78018313829336E-19 
                               9.108003985738E-10 5.60900902631998E-19 4.30998109434267E-08 180              2.88962125087496E-08 180              8.59964985018063E-09 -6.58682414867724E-20 
                               4.97165417799071E-09 -180             5.77857368350485E-11 -180             1.39357100117073E-09 -180             8.43124706153573E-11 -180             
                               7.61752746867171E-19 180              3.54288152172638E-09 180              
                               2.00113268316242E-06 -180             5.61192464419356E-07 6.34418776124667E-15 2.48681883796553E-09 5.59608439815319E-15 2.35007832285184E-06 180              
                               4.04023123797123E-08 6.18354703090226E-15 0.000417490421763866 179.999999999998 5.44623225073631E-08 6.43967269116065E-15 4.1719943364422E-10 -180             
                               8.8957919843249E-08 -1.20572121927703E-14 2.55038861690149E-08 -180             3.85222950475549E-07 -180             2.60238969909896E-07 6.33387322688925E-15 
                               2.94990788072901E-09 -180             5.6853718772153E-07 6.79452536691444E-15 1.97165035228819E-06 6.7738490604775E-15 1.56148623341406E-08 -180             
                               9.34290313647267E-09 6.47023114103644E-15 1.22236059076677E-10 6.49356665091249E-15 1.16816070515131E-08 -180             1.08373138346907E-09 -180             
                               4.1393242364997E-18 180              7.13256995724228E-06 6.25939099779203E-15 
                               7.36140013896358E-08 -180             4.04003304369193E-08 1.59329230933339E-20 3.2749139007191E-10 -3.76097676291394E-20 1.33269609411192E-07 -1.77883873363161E-14 
                               1.18371578217704E-09 180              5.44623225073632E-08 1.01513762891942E-14 0.00143368362996843 -180             6.02907425515223E-12 180              
                               1.03561346639443E-08 -2.00580124051017E-14 1.27029489126833E-09 -180             2.83137323387112E-07 180              2.48190988363489E-07 -3.50221545099908E-20 
                               5.97586654790532E-10 -3.6861072124659E-19 9.9146202392964E-08 -180             2.83563653049623E-08 -180             4.05485040741843E-09 180              
                               4.44427602780252E-09 180              9.12252879901567E-12 180              1.35969863070981E-09 1.21082121819042E-14 1.03621066353853E-10 -1.5281892775519E-14 
                               3.40961300062842E-20 -180             5.07024980597386E-08 1.77877050186972E-19 
                               1.22309290899965E-10 -3.56699018055008E-15 4.58420127442585E-11 180              3.66188651239508E-13 180              1.28335149059648E-10 -180             
                               7.0774745045411E-13 -3.45808239891531E-15 4.17199433644221E-10 -180             6.02907425515222E-12 180              0.00216931559316402 -179.999999999997 
                               3.5385371816096E-12 -180             8.35910055848448E-13 -4.14785002879174E-15 1.92902407523727E-11 -4.16818901150663E-15 7.47629574009456E-11 180              
                               4.3554862290117E-13 180              4.38462983251137E-11 -4.26877447943041E-15 1.27836350961516E-10 -4.6382720908627E-15 3.44170071930409E-12 -4.11023097303117E-15 
                               2.32364262820708E-12 -4.70250186965475E-15 7.24240512218726E-15 -4.46215771490552E-15 1.07419477631138E-12 180              1.02224456504595E-13 180              
                               1.12279208422388E-22 -2.42124223749951E-14 3.40219188692517E-10 180              
                               3.22956148558611E-07 -8.99533390752773E-15 1.88580113892267E-07 180              7.8451137178972E-10 180              6.41400932148779E-08 180              
                               1.64397075133208E-09 180              8.89579198432489E-08 5.67784685640707E-15 1.03561346639442E-08 -9.0891981881771E-15 3.5385371816096E-12 180              
                               0.00103896224064159 -179.999999999994 2.61210247071223E-09 180              2.84871273697696E-07 180              8.1515997734318E-08 180              
                               5.29694162862251E-10 180              5.9093988065373E-08 -9.23979700318307E-15 1.04515121880909E-07 -8.50356120500634E-15 8.9935132527777E-09 -9.08571059636006E-15 
                               4.14212973455522E-09 -8.42149680643439E-15 5.47927338248594E-12 -8.84498627039574E-15 9.37665774239818E-09 180              4.13504354356703E-09 180              
                               3.68260546172999E-19 -4.1261059984348E-14 8.17706290746636E-07 -8.95714417322245E-15 
                               4.36668799345101E-08 7.50104266439596E-23 1.0611539791296E-07 -180             1.91397913058468E-09 -180             3.20768498367227E-08 -4.88640146731001E-14 
                               4.29115914800292E-09 8.57982742899193E-20 2.55038861690149E-08 -180             1.27029489126833E-09 -180             8.35910055848449E-13 -2.31487794093472E-14 
                               2.61210247071223E-09 -180             0.00135699012995982 -180             4.96901906629672E-08 180              2.40728546512099E-07 -180             
                               9.2552352600122E-10 -1.39973336983738E-19 4.76303583977751E-08 -180             2.77442543935299E-08 -180             3.44581578608342E-08 4.51805601641929E-21 
                               1.55077409101915E-08 180              5.4928692498189E-12 1.11013145723259E-18 3.67409556189947E-08 -2.75940372385445E-16 7.54615614510188E-10 2.34259791811441E-16 
                               2.80127935109044E-20 4.55471231103157E-14 2.46352340292598E-08 -180             
                               1.65739179640984E-06 8.44195076776605E-21 6.05409893198407E-07 -180             2.59654498112784E-09 180              3.03436155123991E-07 180              
                               2.46763978293535E-08 -8.04056971253896E-20 3.85222950475548E-07 -180             2.83137323387112E-07 180              1.92902407523728E-11 -2.43610733418355E-14 
                               2.84871273697696E-07 180              4.96901906629673E-08 180              0.00049298098075401 -180             2.21714118711827E-06 1.0816051784726E-20 
                               2.47097943072813E-09 2.52576185531125E-19 5.90154426335983E-07 180              1.67448932715963E-06 180              2.2384882792735E-08 -2.55041686227155E-20 
                               1.55687284287472E-08 -180             6.93148057298536E-11 -4.25317266497875E-19 6.32265264981549E-08 180              1.01705947883321E-08 180              
                               7.63434303774919E-19 180              9.34952229554065E-07 -180             
                               5.91341832525475E-07 -6.58692209007783E-20 5.58841952652824E-08 180              3.95709921825943E-09 -5.63398171250762E-20 3.30393907086441E-06 -1.04666865842692E-14 
                               2.44927587791177E-08 4.25013368182474E-19 2.60238969909896E-07 9.99564794297097E-15 2.48190988363488E-07 -2.15110641542422E-20 7.47629574009455E-11 -180             
                               8.15159977343179E-08 180              2.40728546512099E-07 -180             2.21714118711827E-06 5.1239519270528E-21 0.00211607065980757 -180             
                               5.05168679817882E-08 -6.93878380218669E-20 2.23674440740417E-06 -4.05508122927218E-20 3.46486441220716E-06 -5.77954376275651E-20 9.67065535134452E-08 180              
                               1.17047037067613E-06 180              1.21182676516609E-10 180              1.05073173408062E-07 -180             5.2377061045471E-09 -180             
                               2.38104734161951E-18 180              6.24361717272627E-07 180              
                               6.30855384716812E-09 -4.52536193784799E-20 5.52766989890786E-09 -180             7.6941687333588E-11 -180             7.90208562325654E-08 -3.40878970897985E-15 
                               9.10800398573797E-10 1.21805590443728E-19 2.94990788072901E-09 -180             5.97586654790531E-10 -1.02501218598477E-19 4.35548622901169E-13 -180             
                               5.29694162862253E-10 180              9.25523526001219E-10 -1.36269535996714E-20 2.47097943072814E-09 6.71193797061049E-20 5.05168679817882E-08 -3.07195521398448E-20 
                               0.000497300901166287 -180             3.43544457707007E-08 -2.89221514032618E-20 1.33758659336584E-08 -1.82912720642608E-19 9.73248114463995E-10 4.31618701034526E-20 
                               5.1705485570494E-10 2.61019595996798E-19 1.00116117132602E-11 1.87578271364578E-19 1.47977842931246E-10 -3.8749875749386E-15 9.05350377114611E-12 -1.02611372643715E-14 
                               7.88240986146698E-21 180              6.55066797927261E-09 180              
                               6.35985301964849E-07 -180             4.47096298545469E-07 1.30659070449959E-20 5.11836890859324E-09 1.81755686792315E-20 2.25592791583792E-06 7.89767841547725E-15 
                               4.30998109434266E-08 -180             5.68537187721531E-07 1.3785325292344E-14 9.91462023929643E-08 180              4.38462983251135E-11 2.77191787057113E-14 
                               5.90939880653732E-08 -1.72376782399534E-14 4.76303583977749E-08 180              5.90154426335983E-07 -180             2.23674440740418E-06 1.93405178369897E-20 
                               3.43544457707007E-08 2.50146751040384E-20 0.000615142114828937 180              3.08940798983713E-06 180              6.50023605531349E-08 -180             
                               1.13025069955015E-07 -180             3.41519089436457E-10 -180             4.26531891420706E-10 -3.35976988027896E-14 1.60753575990802E-10 -180             
                               2.9099470428027E-19 -1.10354140788464E-13 6.82454300859515E-07 9.90647267361371E-20 
                               1.13309032782643E-06 -180             6.25213344434047E-07 3.50742320224347E-20 5.69770629287343E-09 -4.02922593069142E-20 4.70674685602886E-06 -9.81589702763126E-15 
                               2.88962125087496E-08 180              1.97165035228818E-06 1.16543454950692E-14 2.83563653049622E-08 -180             1.27836350961515E-10 1.75671402264103E-14 
                               1.04515121880909E-07 -1.51521510099449E-14 2.77442543935299E-08 -180             1.67448932715963E-06 180              3.46486441220716E-06 -5.26800902340196E-20 
                               1.33758659336584E-08 -3.60944991392602E-19 3.08940798983714E-06 -180             0.000200385364395594 -180             6.53192189793528E-08 180              
                               7.35892529433631E-08 180              2.26305848185964E-10 180              1.41234556293388E-08 1.20347299018542E-14 9.86192499568516E-10 -9.3881037518377E-15 
                               3.23657025396662E-19 -180             1.3574869266466E-06 2.27949882398514E-19 
                               1.07323770015096E-07 180              1.87548184625392E-07 -1.19704459572764E-21 2.30314611764991E-09 -2.61355247250617E-22 8.44555591567015E-08 -180             
                               8.59964985018059E-09 -7.57073193630711E-21 1.56148623341405E-08 -180             4.05485040741842E-09 -180             3.44170071930409E-12 -2.0105478627833E-14 
                               8.99351325277773E-09 -1.69334662281782E-14 3.44581578608341E-08 3.08796871384546E-22 2.2384882792735E-08 8.73455029433498E-21 9.67065535134451E-08 180              
                               9.73248114463993E-10 1.91711049828964E-20 6.50023605531351E-08 180              6.5319218979353E-08 -180             0.00111220988898397 180              
                               1.21040236368426E-08 -180             4.01339735186296E-11 -2.2378181691134E-20 5.52599906283342E-08 -180             6.10917656834761E-10 180              
                               3.32950800995148E-19 -3.80900414442059E-14 7.78331705233231E-08 -5.33439136481378E-20 
                               4.5021941653706E-08 180              4.42151694045545E-08 -2.06928998182162E-21 6.10820401894902E-10 2.65277589031652E-20 2.35638967692891E-07 180              
                               4.97165417799073E-09 -180             9.34290313647269E-09 2.62103525144272E-15 4.44427602780254E-09 180              2.32364262820709E-12 -7.6460549038505E-16 
                               4.14212973455524E-09 -8.50907489226756E-15 1.55077409101915E-08 180              1.55687284287472E-08 -180             1.17047037067613E-06 180              
                               5.1705485570494E-10 4.69152854493109E-19 1.13025069955015E-07 180              7.35892529433628E-08 180              1.21040236368426E-08 -180             
                               0.00178236714628643 -180             8.00678613429217E-12 -180             1.7858136277599E-09 180              8.99383683386825E-11 180              
                               7.45404659286104E-20 -4.98902994142636E-14 4.0998365287119E-08 -7.86199072976553E-20 
                               8.04467366318299E-11 180              3.24932678574247E-11 -8.91217167103086E-20 1.11727016425875E-13 4.38799604559332E-18 3.70711973517771E-09 180              
                               5.77857368350483E-11 -180             1.22236059076677E-10 1.29624261720445E-14 9.12252879901567E-12 180              7.24240512218727E-15 -1.594673500168E-15 
                               5.47927338248593E-12 -1.32197322161928E-14 5.49286924981889E-12 5.04589581916639E-19 6.93148057298536E-11 -4.13489932775338E-19 1.2118267651661E-10 180              
                               1.00116117132602E-11 7.23269206706446E-19 3.41519089436456E-10 180              2.26305848185963E-10 180              4.01339735186298E-11 -1.92745577250686E-19 
                               8.00678613429218E-12 -180             0.00154988971828651 -180             1.17473231626885E-11 -180             5.86831949456996E-13 -180             
                               2.44203741008652E-22 180              1.09466600528372E-10 -8.20660206350845E-19 
                               1.14525591835196E-07 1.279038872971E-15 1.89131670641706E-07 -180             1.95888691063804E-09 1.85703346899361E-15 6.16323817295985E-08 -2.13577228319779E-14 
                               1.39357100117073E-09 -180             1.16816070515131E-08 -180             1.35969863070981E-09 1.63550205974106E-15 1.07419477631138E-12 -180             
                               9.37665774239819E-09 180              3.67409556189948E-08 1.23828548476855E-15 6.32265264981552E-08 -180             1.05073173408062E-07 -180             
                               1.47977842931246E-10 1.72074531760915E-15 4.26531891420716E-10 1.49652274870373E-15 1.41234556293387E-08 2.06365404243171E-15 5.52599906283341E-08 -180             
                               1.78581362775989E-09 -180             1.17473231626885E-11 -180             0.000305545063026047 179.999999999985 1.68807100338019E-09 -7.41565374186394E-15 
                               1.40642781552627E-19 180              6.48875290492414E-08 -180             
                               2.87163292501344E-08 2.05573863778706E-15 1.00782758046589E-08 2.13544377166027E-15 5.63250936907795E-11 2.04229963111307E-15 4.09192629017721E-09 -1.28492529532096E-14 
                               8.43124706153572E-11 -180             1.08373138346906E-09 -180             1.03621066353853E-10 1.70411530793701E-15 1.02224456504595E-13 180              
                               4.13504354356704E-09 180              7.54615614510187E-10 2.12979087829932E-15 1.01705947883321E-08 -180             5.2377061045471E-09 -180             
                               9.05350377114617E-12 1.7897636710533E-15 1.60753575990802E-10 -180             9.86192499568511E-10 2.34635039150095E-15 6.10917656834759E-10 -180             
                               8.99383683386824E-11 -180             5.86831949456996E-13 -180             1.6880710033802E-09 8.31687348386048E-15 0.000412075388138477 -179.999999999995 
                               1.11597097087575E-20 180              1.04348744991604E-08 -180             
                               1.40513693202529E-17 180              1.36740840945857E-18 180              7.17596012533724E-20 180              3.94015220907558E-18 -4.99068382100194E-14 
                               7.61752746867167E-19 180              4.13932423649969E-18 -180             3.40961300062844E-20 180              1.12279208422388E-22 -4.27748938655482E-14 
                               3.68260546172998E-19 -1.47290461945591E-14 2.80127935109046E-20 -3.75830284824253E-15 7.63434303774915E-19 180              2.3810473416195E-18 180              
                               7.88240986146694E-21 180              2.90994704280267E-19 -2.71280399415422E-15 3.23657025396664E-19 180              3.32950800995147E-19 -2.58752234460153E-15 
                               7.45404659286103E-20 -3.69070489494284E-15 2.44203741008653E-22 180              1.40642781552627E-19 -180             1.11597097087575E-20 180              
                               0.00109462230055068 -179.999999999999 8.2907236587601E-18 -3.34137947348707E-15 
                               6.51220153490751E-06 -3.66566304900236E-20 1.23740207228477E-06 180              9.57053169828858E-09 180              1.09043017073148E-06 180              
                               3.54288152172638E-09 -180             7.13256995724229E-06 1.31172809599587E-14 5.07024980597387E-08 2.17800143083324E-19 3.40219188692517E-10 180              
                               8.17706290746636E-07 -8.28428778013046E-15 2.46352340292598E-08 -180             9.34952229554066E-07 -180             6.24361717272626E-07 180              
                               6.55066797927261E-09 180              6.82454300859517E-07 2.08324475405719E-19 1.3574869266466E-06 3.00155822773758E-19 7.78331705233229E-08 -5.97514887602311E-20 
                               4.09983652871189E-08 -1.49879702671575E-19 1.09466600528372E-10 -8.7718419069429E-19 6.48875290492415E-08 -180             1.04348744991604E-08 -180             
                               8.29072365876008E-18 1.25670042833147E-14 0.000564527439599116 180              
! Gamma         59.9338180997439 0                76.2426143359998 0                59.933894845256  0                103.007060346401 0                76.241061701845  0                76.2412131528253 0                76.2414472063531 0                103.007351419272 0                103.0072646343   0                76.241135352991  0                76.2412013780756 0                103.007089201169 0                59.9337805625892 0                76.2415182708054 0                59.9339863637145 0                103.00764032658  0                76.2420853278326 0                103.007403145601 0                76.2415011116618 0                103.007215563215 0                208.588954801032 0                103.008054113905 0                
! Port Impedance         0                29.2395434743773 0                57.3158054562657 0                58.4745331615925 0                28.362330625831  0                57.475695905583  0                28.7415778653423 0                57.3916351662231 0                56.6857082700428 0                56.7025226878262 0                57.4738464637632 0                28.7421911791249 0                28.3626785207924 0                58.4919214527431 0                57.3989642362436 0                29.2211946445137 0                56.6790659890202 0                57.3035447412348 0                56.6791641836205 0                28.7108666291552 0                28.3625225938387 0                28.0066380531189 0                56.6346084762615 
0.95                           0.000237091961250768 -180             3.05468133474761E-06 6.17441808489781E-21 1.32164310882649E-08 5.71962410081443E-21 7.74027912354914E-07 -2.40176223682174E-14 
                               3.71917064777359E-08 1.07472747110583E-19 2.16541863594146E-06 180              8.03843762677068E-08 -180             1.32764894094706E-10 3.87385793095707E-20 
                               3.20293866006741E-07 1.20837906682752E-20 4.86509788081254E-08 -4.58080823030577E-20 1.80052720618324E-06 -1.42687571504504E-20 6.54661507309901E-07 2.3087759384463E-20 
                               7.35414994914865E-09 -9.67680424393951E-15 7.03904908727907E-07 180              1.25111728107419E-06 180              1.16213758399213E-07 -180             
                               5.07958999061745E-08 180              8.99933805247575E-11 180              1.25224134469923E-07 -9.63973953657241E-21 3.06038219185643E-08 -2.89352366002408E-21 
                               1.49272473746098E-17 180              6.54933916236538E-06 8.2979779629016E-21 
                               3.05468133474761E-06 5.91816337169076E-21 0.000378809966234739 -180             2.24277460831303E-08 -180             4.90925224784412E-08 180              
                               1.126190886868E-07 -180             6.08951850049334E-07 -5.2770977504148E-20 4.43072216014656E-08 3.96878879918453E-20 5.01351432959294E-11 -180             
                               1.95552385921089E-07 -180             1.14628773995345E-07 180              6.56129414001626E-07 180              6.00455135591877E-08 -180             
                               6.30141267196493E-09 180              4.89052765946796E-07 -1.78194310965974E-14 6.91841535414388E-07 -1.08107107123163E-14 1.94381879737809E-07 3.22382045864302E-21 
                               4.84668644586049E-08 4.80907124819479E-21 3.46908186557974E-11 -4.20156039038091E-19 1.99863495839421E-07 180              1.0637491136664E-08 1.63876527049761E-21 
                               1.32429920769868E-18 180              1.27001333436307E-06 -180             
                               1.32164310882649E-08 5.93990557421719E-21 2.24277460831303E-08 -180             0.000434926740827235 -180             6.08390920821936E-09 -6.70263136443781E-15 
                               3.36348799946706E-09 180              2.8612154152761E-09 -6.48093112036975E-21 3.8044759460921E-10 4.99246620395681E-22 4.2452694168014E-13 -180             
                               8.73658310724798E-10 -180             2.14721494147583E-09 180              2.9839071414666E-09 180              4.50313870770261E-09 -1.25427728262535E-19 
                               9.06806740416041E-11 -180             5.83994279228031E-09 -1.07216053458029E-14 6.64566368621234E-09 -1.06467942575897E-14 2.34324048780064E-09 6.13299713573356E-21 
                               6.89878130359023E-10 3.96158173060498E-20 9.68921731918221E-14 2.36609748253089E-18 2.17561561825243E-09 -2.09522413170889E-21 6.30182222966763E-11 -5.16351724124061E-21 
                               7.90661531862517E-20 -180             1.05576559704428E-08 -180             
                               7.74027912354914E-07 -8.68218004783603E-15 4.90925224784412E-08 180              6.08390920821937E-09 -7.88806014755434E-15 0.000286705597461911 -179.999999999977 
                               2.53275020246972E-07 180              2.48790256752372E-06 180              1.44797470563444E-07 -8.41363687660921E-15 1.39218221672831E-10 180              
                               6.99410458564111E-08 180              3.55853617512868E-08 -9.657018778035E-15 3.33318653758956E-07 180              3.50332791980863E-06 -9.04671930166751E-15 
                               8.62634394051045E-08 -9.61901134672517E-15 2.34722783392515E-06 -1.61247131292989E-14 5.03780904038113E-06 -2.06248172310717E-14 9.14086121028416E-08 180              
                               2.53609236463429E-07 180              3.90657047111099E-09 180              6.81880351230923E-08 -8.42169551492026E-15 4.50048153412119E-09 -9.73256104030343E-15 