! Touchstone file exported from HFSS 2020.2.0
!        Generated:      11:08:26  avr. 27, 2020
!        Design:         test
!        Project:        test_multiport
!        Setup:          Setup1
!        Solution:       Sweep
!
!Data is not renormalized
# GHZ S MA
! Terminal data exported
! Port[1] = 1
! Port[2] = 2
! Port[3] = 3
! Port[4] = 4
! Port[5] = 5
! Port[6] = 6
! Port[7] = 7
! Port[8] = 8
! Port[9] = 9
! Port[10] = 10
! Port[11] = 11
! Port[12] = 12
! Port[13] = 13
! Port[14] = 14
! Port[15] = 15
0.9                            0.000228923893969224 180              3.12641811716559E-06 -4.49475681751654E-23 1.23078212584676E-08 -7.83527484568485E-24 6.93073503638854E-07 1.6228304796704E-23 
                               3.92366997038227E-08 -5.68788163495829E-15 2.02157563832709E-06 180              8.04907430483828E-08 180              2.38763076303161E-10 8.07072895523754E-16 
                               3.86075684437119E-07 3.47065541188778E-15 3.87096850597342E-08 -8.3920293096815E-23 1.65632581205299E-06 -1.47965374430011E-22 5.71370979471172E-07 -1.1867611634959E-22 
                               6.27738351198029E-09 1.18112940467449E-14 6.33625505998706E-07 180              1.12773914077832E-06 180              
                               3.12641811716559E-06 3.98815867487272E-23 0.000415684843145692 -180             2.12426297660507E-08 -180             5.06702308367219E-08 -180             
                               1.21367956307031E-07 180              5.6747236376907E-07 7.04412881729836E-23 4.39816474741548E-08 7.02737105038609E-23 8.76414698228395E-11 180              
                               2.03739913750561E-07 180              1.03546751481798E-07 180              5.94693993685259E-07 -180             3.75860015305614E-08 -180             
                               5.54151608102872E-09 -180             4.48150315734159E-07 -5.72545904448229E-24 6.23636587572857E-07 4.35643539967275E-23 
                               1.23078212584676E-08 -2.26187871986054E-22 2.12426297660508E-08 -180             0.000318353875619515 -180             5.60583736656705E-09 -1.11272114579444E-21 
                               3.62764849750605E-09 180              2.61619531986255E-09 2.92630229316558E-23 3.74853667191402E-10 -4.19336344068387E-22 6.68994845615058E-13 -180             
                               8.92421396176761E-10 -180             2.07098882015791E-09 180              2.7036276936151E-09 180              4.22843746837064E-09 3.60245202257247E-22 
                               8.06969239525494E-11 -180             5.3835238230147E-09 -3.70270380151734E-22 5.987722326959E-09 -3.20947514048075E-22 
                               6.93073503638853E-07 3.35898812062597E-22 5.06702308367226E-08 -180             5.60583736656705E-09 -3.75578832540785E-21 0.000134435801392718 -180             
                               2.75011115252414E-07 180              2.3325385415842E-06 180              1.45259238350776E-07 -6.06503381923208E-23 9.51544323602483E-11 -180             
                               6.90403340515495E-08 -180             2.70857565998209E-08 1.25039238507531E-21 3.03381045916731E-07 180              3.21404257251677E-06 7.11778478521527E-23 
                               7.84093431418893E-08 1.74558643355391E-14 2.26999155941281E-06 -1.18267434680893E-22 4.68326368791342E-06 -4.02470827486604E-23 
                               3.92366997038227E-08 -2.44246478874212E-15 1.21367956307031E-07 180              3.62764849750605E-09 180              2.75011115252415E-07 180              
                               0.00306389082095648 -179.999999999999 4.72289156883138E-08 -1.07427063969201E-15 1.53480173720913E-09 180              7.18473722030317E-13 180              
                               2.05866403808899E-09 -180             4.98156126700668E-09 -4.07021786105983E-15 2.85917323037478E-08 -1.93238459642422E-15 2.73904669073673E-08 -2.54322875396764E-15 
                               1.05430512508724E-09 3.91825578187732E-15 4.98238573068655E-08 180              3.35910931033327E-08 180              
                               2.02157563832709E-06 180              5.6747236376907E-07 -6.01901395995919E-23 2.61619531986256E-09 3.37833767688141E-22 2.33253854158421E-06 180              
                               4.72289156883138E-08 -8.57513461162711E-15 0.000465960377344698 180              5.96289785986068E-08 8.92762890880182E-23 5.10776507428623E-10 -180             
                               9.47509563383918E-08 5.40384003293082E-15 2.49901129966429E-08 -180             3.82663524796403E-07 -180             2.56903727727404E-07 -1.6729651049304E-22 
                               2.91717727081351E-09 -180             5.68282062429896E-07 7.66886939592338E-23 1.96181305789025E-06 2.70781109551146E-23 
                               8.04907430483829E-08 180              4.39816474741548E-08 -4.04818550562598E-22 3.74853667191401E-10 -1.64542272689603E-22 1.45259238350776E-07 -3.16896759836881E-23 
                               1.53480173720914E-09 -180             5.96289785986066E-08 1.4264231034053E-22 0.00277023662389619 180              1.59406982786184E-11 180              
                               1.215406953432E-08 8.80446789626103E-15 1.46406903432128E-09 -180             3.08685452729116E-07 -180             2.59955229743605E-07 -2.84580456689385E-23 
                               6.44838463624468E-10 9.33303195545102E-15 1.06570134099511E-07 180              1.06959534289297E-08 9.3419523283068E-22 
                               2.38763076303161E-10 4.71500719412019E-15 8.76414698228394E-11 -180             6.68994845615059E-13 -180             9.51544323602482E-11 -180             
                               7.18473722030316E-13 -180             5.10776507428623E-10 -180             1.59406982786185E-11 -180             0.000899743075264081 179.999999999999 
                               1.07177494344801E-11 -180             2.82534136791428E-12 4.74618540865051E-15 5.57391445827203E-11 4.39957211466036E-15 1.3358225612741E-10 -180             
                               5.62889883840707E-13 -180             3.91093166913099E-11 4.18955839590116E-15 5.39926577459838E-11 4.67674925266013E-15 
                               3.86075684437121E-07 2.06838346066115E-15 2.03739913750561E-07 -180             8.92421396176759E-10 -180             6.90403340515495E-08 -180             
                               2.05866403808899E-09 180              9.47509563383919E-08 2.02536063598066E-15 1.215406953432E-08 1.9454788792567E-15 1.07177494344801E-11 -180             
                               0.000737438392640843 179.999999999996 2.36854018607043E-09 -180             3.06740263621019E-07 -180             8.47872445077963E-08 -180             
                               5.71326576613268E-10 -180             6.36722195006006E-08 1.74279259387206E-15 1.11794047932881E-07 1.63367995058475E-15 
                               3.87096850597342E-08 -1.16406437929742E-22 1.03546751481798E-07 180              2.07098882015791E-09 180              2.70857565998208E-08 2.56613517419762E-22 
                               4.98156126700667E-09 -5.48038196233605E-15 2.49901129966428E-08 -180             1.46406903432128E-09 -180             2.82534136791428E-12 -5.22279668915368E-15 
                               2.36854018607043E-09 -180             0.00200181946531985 -180             4.69728347828877E-08 180              2.24598654030639E-07 -180             
                               8.98278926449512E-10 -8.33461569968204E-16 4.81911149416619E-08 180              2.92192270131258E-08 -180             
                               1.65632581205299E-06 -2.84495010131006E-22 5.94693993685259E-07 180              2.7036276936151E-09 180              3.03381045916731E-07 180              
                               2.85917323037478E-08 -1.88036466155824E-15 3.82663524796402E-07 -180             3.08685452729116E-07 -180             5.57391445827199E-11 -9.78127923037197E-16 
                               3.06740263621018E-07 -180             4.69728347828876E-08 180              0.000532879378221218 180              2.16715497190756E-06 4.31643857022048E-23 
                               2.48648033209354E-09 7.01864092248736E-15 5.82775167720878E-07 -180             1.6678291301603E-06 -180             
                               5.71370979471171E-07 -1.65651916681481E-21 3.75860015305615E-08 180              4.22843746837062E-09 7.6073999422864E-22 3.21404257251676E-06 7.49677123941986E-23 
                               2.73904669073674E-08 -1.22707114604115E-14 2.56903727727403E-07 -9.42336994432602E-22 2.59955229743605E-07 -1.10890409674761E-22 1.33582256127411E-10 -180             
                               8.47872445077965E-08 -180             2.24598654030639E-07 180              2.16715497190756E-06 3.34162753280606E-22 0.00119679943746309 180              
                               4.95441362429148E-08 -4.76667833949181E-16 2.25064674658687E-06 -6.20018402838193E-23 3.38794618224948E-06 -7.58395717306529E-23 
                               6.27738351198029E-09 5.30631604480885E-15 5.54151608102871E-09 -180             8.06969239525493E-11 -180             7.84093431418894E-08 4.69057922576285E-15 
                               1.05430512508723E-09 -6.30600795439394E-16 2.9171772708135E-09 -180             6.44838463624468E-10 5.10297069072397E-15 5.62889883840706E-13 -180             
                               5.71326576613268E-10 -180             8.98278926449511E-10 4.90180119247649E-15 2.48648033209356E-09 4.87189460860457E-15 4.95441362429148E-08 4.6770976810398E-15 
                               0.000453828946562207 179.999999999985 3.4631157214695E-08 4.91055728784789E-15 1.33641486232931E-08 4.72148711378242E-15 
                               6.33625505998707E-07 180              4.48150315734158E-07 -4.59759687604383E-22 5.3835238230147E-09 -4.33301606108137E-22 2.2699915594128E-06 -7.8960397617345E-23 
                               4.98238573068655E-08 180              5.68282062429897E-07 1.59634641769247E-22 1.06570134099512E-07 180              3.91093166913099E-11 -1.02482909480329E-14 
                               6.36722195006004E-08 1.27074552035869E-14 4.81911149416619E-08 180              5.82775167720878E-07 -180             2.25064674658685E-06 -1.8032734350122E-23 
                               3.4631157214695E-08 5.45166956194782E-15 0.000644131907410084 180              3.08458204704221E-06 180              
                               1.12773914077832E-06 180              6.23636587572857E-07 -4.11644048862043E-22 5.98772232695898E-09 -4.26932949200776E-22 4.68326368791342E-06 -4.19728701470442E-23 
                               3.35910931033327E-08 180              1.96181305789025E-06 5.91706402241667E-23 1.06959534289296E-08 1.05621208603408E-21 5.39926577459836E-11 2.77612491760642E-14 
                               1.11794047932881E-07 1.0111598962496E-14 2.92192270131258E-08 180              1.6678291301603E-06 -180             3.38794618224947E-06 -1.91689648432117E-23 
                               1.33641486232931E-08 6.56099177995476E-15 3.0845820470422E-06 180              0.000436076269484054 180              
! Gamma         59.9338052977179 0                76.2426172701838 0                59.9340018325797 0                103.00707936291  0                76.2410682558647 0                76.241310480614  0                76.241489590875  0                103.007312741928 0                103.007656014695 0                76.2411346810656 0                76.241195944325  0                103.007100666905 0                59.9336579031576 0                76.2414833942765 0                59.9337223541543 0                
! Port Impedance         0                29.2415989048511 0                57.315883014986  0                58.4339501116571 0                28.3625388346387 0                57.4759821064653 0                28.7415785342228 0                57.3905969912645 0                56.686685355159  0                56.6669914678304 0                57.4739234507917 0                28.7423040749392 0                28.362823234232  0                58.4898250096877 0                57.4049584756443 0                29.2505605159105 
0.95                           0.000226816439841127 -180             3.2588073941864E-06 -3.04584650604447E-15 1.37224573394214E-08 7.73253916102842E-15 7.66998575947E-07 2.87296138329477E-20 
                               4.36252098479024E-08 8.33911400180954E-22 2.18721286329629E-06 180              8.78388459767146E-08 -180             2.58210646886963E-10 3.47295433413465E-21 
                               3.84765486208613E-07 7.06797628378312E-21 4.32539486062784E-08 5.49512360970241E-21 1.799026747924E-06 -3.88090316584201E-17 6.3222950314209E-07 6.5064181375722E-21 
                               7.32122187166013E-09 6.17280799451972E-20 7.01364642588804E-07 180              1.24520559401683E-06 -180             
                               3.2588073941864E-06 -4.55626781235319E-15 0.000413707874427516 -179.999999999986 2.26183127047412E-08 -180             5.46167798089258E-08 180              
                               1.31085714097567E-07 180              6.15633672915923E-07 -4.92348969114471E-15 4.82165042316986E-08 -4.34378421477083E-15 9.53727776842582E-11 180              
                               2.11168557799053E-07 180              1.11993235828693E-07 180              6.44717517227258E-07 180              4.01340272020703E-08 180              
                               6.3199932363749E-09 180              4.90236224993806E-07 -3.27747287116639E-14 6.90240283194867E-07 -1.30744440074751E-14 
                               1.37224573394214E-08 5.25630495821944E-15 2.26183127047413E-08 180              0.000318132731707554 179.999999999976 6.33128930916271E-09 5.50831792831118E-15 
                               4.03847253044778E-09 -180             3.00707255049936E-09 5.32405566190924E-15 4.34844465051241E-10 4.98784592612032E-15 7.71500205035266E-13 -180             
                               9.92674026985511E-10 -180             2.32193430529451E-09 -180             3.10545672890596E-09 -180             4.80593274994259E-09 5.54299607336556E-15 
                               9.50606002135358E-11 -180             6.13678213073028E-09 -2.00972289820253E-14 6.97795996191152E-09 -2.22496380666276E-15 
                               7.66998575947001E-07 1.75129037152364E-19 5.46167798089262E-08 180              6.33128930916272E-09 1.28209441757794E-14 0.000124847510357573 -180             
                               2.92746837622659E-07 180              2.46958808281287E-06 -180             1.57708912890931E-07 1.1576222755451E-20 1.047114018117E-10 -180             
                               7.52564198991641E-08 -180             3.01598143456019E-08 1.17330213486949E-19 3.33267986120847E-07 -180             3.40699216189212E-06 -1.00347864804241E-19 
                               8.56256562265816E-08 -2.74027707967549E-20 2.36094535364158E-06 -1.16792334949384E-14 5.01280613510818E-06 -1.68365719391888E-14 
                               4.36252098479024E-08 -6.6079204529721E-20 1.31085714097567E-07 -180             4.03847253044777E-09 -180             2.92746837622659E-07 180              
                               0.00304170687813854 -180             5.04060906959282E-08 2.06811223541809E-20 1.72811435177676E-09 -180             7.44006990621937E-13 180              
                               2.25621065523987E-09 180              5.51069604786842E-09 -6.86746856260055E-21 3.19561207598795E-08 9.45571507476167E-15 3.02603675107885E-08 1.65668127388005E-19 
                               1.1987553290297E-09 5.87197803855242E-20 5.47952907425836E-08 180              3.77624636020953E-08 180              
                               2.18721286329629E-06 180              6.15633672915922E-07 -7.18557291641104E-15 3.00707255049935E-09 -6.9832579273447E-16 2.46958808281287E-06 -180             
                               5.04060906959281E-08 4.18979685123085E-20 0.000463581406073277 -180             6.49052775957757E-08 3.55025269950551E-20 5.4958917413875E-10 -180             
                               1.01413082763991E-07 -2.19975918297491E-20 2.80223287984141E-08 180              4.15628259954942E-07 -180             2.82104398608295E-07 -3.03247902236142E-19 
                               3.34360115441079E-09 -180             6.1623200745242E-07 -2.91237845226593E-14 2.12244695640676E-06 -6.88359954551993E-15 
                               8.78388459767147E-08 -180             4.82165042316986E-08 6.09107926923046E-15 4.3484446505124E-10 2.8163619771666E-15 1.57708912890931E-07 1.48589306544069E-19 
                               1.72811435177676E-09 -180             6.49052775957761E-08 1.43664062164823E-19 0.00274910117730298 -180             1.74439307367636E-11 180              
                               1.2886317647918E-08 5.81167461670616E-20 1.64260070383375E-09 -180             3.29498710502256E-07 -180             2.78706039051359E-07 6.30131029112367E-20 
                               7.27196173890852E-10 2.23099949099801E-19 1.11715104842045E-07 180              2.41469760157736E-08 1.33576942696628E-13 
                               2.58210646886963E-10 1.95177132585157E-20 9.53727776842586E-11 180              7.71500205035267E-13 -180             1.047114018117E-10 -180             
                               7.44006990621938E-13 180              5.4958917413875E-10 -180             1.74439307367637E-11 180              0.000897264112691532 -180             
                               1.12709232137183E-11 -180             3.16710647201762E-12 4.09822753446058E-20 6.08030719118929E-11 -1.96030585536634E-16 1.46472629167457E-10 -180             
                               6.38831273290879E-13 -180             4.08554070297184E-11 -1.88599909841973E-14 5.19327693817277E-11 -6.36933653188512E-14 
                               3.84765486208613E-07 -1.07299441176633E-20 2.11168557799053E-07 -180             9.92674026985512E-10 -180             7.52564198991641E-08 -180             
                               2.25621065523987E-09 180              1.01413082763991E-07 -2.02542212103757E-20 1.28863176479181E-08 5.17428374751528E-20 1.12709232137183E-11 -180             
                               0.000736259717837862 180              2.62049787632591E-09 180              3.23552224605629E-07 -180             9.14810382010333E-08 -180             
                               6.54445448136234E-10 -180             6.88651006123391E-08 -2.58735682993721E-14 1.20328531614824E-07 -3.03692804908074E-15 
                               4.32539486062784E-08 3.57653019293884E-20 1.11993235828693E-07 180              2.3219343052945E-09 -180             3.01598143456018E-08 1.88435578770137E-19 
                               5.51069604786842E-09 -4.36946814497766E-20 2.80223287984141E-08 180              1.64260070383375E-09 180              3.16710647201762E-12 -1.2628560263268E-20 
                               2.62049787632591E-09 180              0.00198908889273641 -180             5.03752715947033E-08 -180             2.39659928157972E-07 180              
                               1.02393808072452E-09 4.48258319850286E-20 5.29294746675706E-08 180              3.28974178536424E-08 180              
                               1.79902674792401E-06 1.39688777079439E-14 6.44717517227259E-07 -180             3.10545672890596E-09 -180             3.33267986120846E-07 -180             
                               3.19561207598794E-08 1.46361567716543E-14 4.15628259954942E-07 -180             3.29498710502257E-07 -180             6.08030719118929E-11 1.4780617826814E-14 
                               3.2355222460563E-07 -180             5.03752715947034E-08 -180             0.000527538404036076 179.99999999997  2.29597403414314E-06 1.48047842259149E-14 
                               2.85731889761055E-09 1.43218838940735E-14 6.318001652559E-07 180              1.81340829131537E-06 -180             
                               6.3222950314209E-07 1.97166516353429E-19 4.01340272020705E-08 -180             4.8059327499426E-09 8.62201291748451E-15 3.40699216189212E-06 -1.13379380407827E-19 
                               3.02603675107884E-08 2.06021288548588E-19 2.82104398608294E-07 -5.43907792592812E-19 2.78706039051359E-07 -1.35237637158473E-20 1.46472629167457E-10 -180             
                               9.1481038201033E-08 -180             2.39659928157972E-07 180              2.29597403414314E-06 1.26974407686047E-14 0.00118518451190719 -180             
                               5.43307953346374E-08 -4.75507458721323E-20 2.34433075392179E-06 -2.2594355116533E-14 3.64429241509072E-06 -1.25702028234287E-14 
                               7.32122187166013E-09 8.31419578791471E-20 6.31999323637491E-09 -180             9.50606002135358E-11 -180             8.56256562265814E-08 -2.90991588231328E-20 
                               1.1987553290297E-09 3.3032123296901E-20 3.34360115441079E-09 -180             7.27196173890855E-10 3.73281837858814E-20 6.38831273290878E-13 -180             
                               6.54445448136234E-10 -180             1.02393808072452E-09 3.23961816369283E-20 2.85731889761055E-09 1.62892197160395E-14 5.43307953346373E-08 -3.52201198680069E-20 
                               0.000451600730897783 -180             3.70938697340564E-08 -1.20670609277403E-14 1.49438074779091E-08 -1.85164301594571E-14 
                               7.01364642588805E-07 180              4.90236224993804E-07 -1.8239430781097E-14 6.13678213073029E-09 -6.91673726800133E-15 2.36094535364158E-06 -1.4394714417779E-14 
                               5.47952907425834E-08 180              6.16232007452417E-07 -1.56432194452868E-14 1.11715104842045E-07 180              4.08554070297185E-11 -1.47731228770767E-14 
                               6.88651006123391E-08 -1.42665334162818E-14 5.29294746675707E-08 180              6.31800165255901E-07 180              2.34433075392179E-06 -1.61384963480562E-14 
                               3.70938697340564E-08 -1.56138422094578E-14 0.000639789292594894 -179.999999999976 3.21014696637419E-06 180              
                               1.24520559401683E-06 -180             6.90240283194866E-07 3.90301291766369E-15 6.9779599619115E-09 7.55910513037189E-15 5.01280613510818E-06 -8.04862379256686E-16 
                               3.7762463602095E-08 180              2.12244695640675E-06 -4.88744001351732E-16 2.41469760157734E-08 2.82772000238606E-15 5.19327693817277E-11 -2.73606597698202E-15 
                               1.20328531614823E-07 -2.09705186218119E-15 3.28974178536424E-08 -180             1.81340829131537E-06 180              3.64429241509071E-06 2.84556545355878E-15 
                               1.49438074779091E-08 6.1715202452141E-16 3.21014696637419E-06 180              0.00043236501540711 179.999999999998 
! Gamma         59.593873667277  0                75.9756898581012 0                59.594071323197  0                102.80966472119  0                75.9741354014776 0                75.9743784772738 0                75.9745582168275 0                102.80989854834  0                102.810242480252 0                75.9742020600611 0                75.9742635385669 0                102.809686066093 0                59.5937254319559 0                75.974551998458  0                59.5937902505916 0                
! Port Impedance         0                31.0421954157457 0                60.7126379742466 0                62.0321077202416 0                29.9957217913168 0                60.8822465840711 0                30.4449247866478 0                60.791795113198  0                59.9508396231763 0                59.9300108294608 0                60.8800658486862 0                30.4456936913571 0                29.9960225433638 0                62.091425298107  0                60.8070093672935 0                31.0517092731625 
1                              0.000224378652532775 180              3.40231893566253E-06 -1.09961590027145E-22 1.53995261229556E-08 6.81048008241506E-21 8.54648531685587E-07 -3.46193422235981E-15 
                               4.8885668023027E-08 1.54150718481301E-20 2.37892911259011E-06 180              9.63882092667233E-08 180              2.8054214573996E-10 -1.04055055731434E-20 
                               3.81447388537941E-07 -8.93931115478689E-15 4.87062975475545E-08 2.3943021671379E-14 1.96484820239263E-06 2.5119134712293E-20 7.04472554849433E-07 2.69020548318905E-14 
                               8.62602161043771E-09 1.33555217622618E-19 7.81630108555689E-07 180              1.38379480930269E-06 180              
                               3.40231893566254E-06 -2.06734376500693E-21 0.000411589985276572 180              2.41368880003737E-08 -180             5.91683394849518E-08 -180             
                               1.42322064231107E-07 180              6.71615319791262E-07 3.74603034737624E-20 5.31843582598265E-08 -2.82006187215018E-20 1.04350044451954E-10 180              
                               2.19192568569926E-07 180              1.21774169282115E-07 -180             7.0280617825704E-07 180              4.30316991727325E-08 180              
                               7.270413914974E-09 -180             5.39577455530386E-07 -4.10009684918667E-20 7.69181450693639E-07 -6.3753491282431E-20 
                               1.53995261229557E-08 -1.73564008187343E-21 2.41368880003735E-08 180              0.000317968649054534 -180             7.20994801087418E-09 -1.19826053884567E-14 
                               4.52687199929976E-09 180              3.48876258667356E-09 5.97289093792444E-20 5.09414578028577E-10 2.62527522638024E-22 8.97951149772763E-13 180              
                               1.11135292487331E-09 180              2.62254181544962E-09 -180             3.60067802512018E-09 180              5.50917616457957E-09 6.09431324311606E-15 
                               1.13152551739385E-10 -180             7.05618210484201E-09 -1.19450960180894E-20 8.21503575541307E-09 -3.13402339913566E-20 
                               8.54648531685589E-07 2.63547898066687E-15 5.91683394849517E-08 -180             7.20994801087416E-09 2.88443483884014E-15 0.000114556030652691 179.999999999997 
                               3.1291816892632E-07 -180             2.62486120330522E-06 -180             1.72163058741567E-07 2.87895421890793E-15 1.15832118358137E-10 -180             
                               8.25113505390406E-08 180              3.38187410668999E-08 2.46288247944396E-14 3.68458303145855E-07 -180             3.62531521327778E-06 -8.28794500529634E-15 
                               9.40365392253141E-08 3.03589248138547E-15 2.46125739043807E-06 2.13170337408576E-15 5.39038784207563E-06 1.55654221841299E-15 
                               4.8885668023027E-08 3.66020684038014E-20 1.42322064231106E-07 -180             4.52687199929975E-09 180              3.1291816892632E-07 180              
                               0.00301835086377733 -180             5.39884259491209E-08 -1.15141793056764E-19 1.96179603547478E-09 180              7.67077699989103E-13 -180             
                               2.4917124493468E-09 180              6.13582873806849E-09 1.28220883296712E-14 3.5990993694742E-08 -3.13666013254116E-20 3.36593744119432E-08 -5.64931360388269E-15 
                               1.37441467976292E-09 1.35075085033258E-19 6.06528624806554E-08 180              4.27984201074251E-08 180              
                               2.37892911259011E-06 180              6.7161531979126E-07 -1.32217389880966E-21 3.48876258667356E-09 4.32991952640676E-20 2.62486120330522E-06 180              
                               5.39884259491209E-08 -8.70399395982679E-20 0.000461036167725193 -180             7.10524681790376E-08 6.11642054407046E-20 5.93763894631564E-10 -180             
                               1.09057558963122E-07 -7.34953775586429E-15 3.16657594131715E-08 -180             4.5388501262416E-07 180              3.11757769765735E-07 1.46628276988115E-14 
                               3.86774504362823E-09 180              6.71948266438019E-07 8.6302311018348E-20 2.30834666601854E-06 5.57701064619463E-20 
                               9.63882092667233E-08 180              5.31843582598263E-08 3.89295401543295E-22 5.09414578028578E-10 3.18307142919003E-21 1.72163058741567E-07 -6.37811756580495E-15 
                               1.96179603547478E-09 180              7.10524681790375E-08 3.36005202994648E-20 0.00272683601662038 180              1.92038166896537E-11 -180             
                               1.37098319045878E-08 -1.10591519226388E-14 1.85733056154664E-09 -180             3.53160588256583E-07 180              3.00172429643487E-07 2.25728935500298E-15 
                               8.26150370710114E-10 1.36594037264109E-20 1.17323073107576E-07 180              4.07517192692841E-08 -2.01362310838771E-20 
                               2.80542145739961E-10 -4.71557805816894E-21 1.04350044451954E-10 180              8.97951149772768E-13 -180             1.15832118358137E-10 -180             
                               7.67077699989105E-13 180              5.93763894631563E-10 180              1.92038166896536E-11 -180             0.000894663996560241 180              