! Touchstone file exported from HFSS 2020.2.0
!        Generated:      11:13:37  avr. 27, 2020
!        Design:         test
!        Project:        test_multiport
!        Setup:          Setup1
!        Solution:       Sweep
!
!Data is not renormalized
# GHZ S MA
! Terminal data exported
! Port[1] = 1
! Port[2] = 2
0.9                            0.000147473024865508 -179.999999999894 3.24624486004798E-06 -1.20850309680108E-14 3.24624486004798E-06 -2.48933896165284E-15 0.000253634744812881 179.999999999993 
! Gamma         59.9337045133848 0                76.2423426789943 0                
! Port Impedance         0                29.251851408797  0                57.4374206992563 
0.95                           0.00014315970049994 180              3.38229334973245E-06 0                3.38229334973244E-06 0                0.000252491896069684 180              
! Gamma         59.5937723080556 0                75.9754143021794 0                
! Port Impedance         0                31.0530794084132 0                60.8413834378942 
1                              0.000138294890893897 180              3.52973423774044E-06 -4.15858770167519E-15 3.52973423774043E-06 8.09658913929852E-15 0.000251258821640343 -179.999999999993 
! Gamma         59.2333535766207 0                75.6930383616382 0                
! Port Impedance         0                32.8863441016581 0                64.2824628471487 
1.05                           0.000132796546937925 -179.999999999966 3.688735231484E-06 -9.53316102355981E-15 3.688735231484E-06 1.52969715571592E-14 0.000249928102757401 -179.99999999999 
! Gamma         58.8520719328005 0                75.3950412909698 0                
! Port Impedance         0                34.7543708336069 0                67.7633468811625 
1.1                            0.000126565684677504 179.999999999909 3.85920523131393E-06 1.19997067326856E-14 3.85920523131393E-06 9.87933157993945E-15 0.000248490789608424 180              
! Gamma         58.4495190951657 0                75.0812370898322 0                
! Port Impedance         0                36.660096092752  0                71.2868584998212 
