! Touchstone file exported from HFSS 2020.2.0
!        Generated:      11:10:58  avr. 27, 2020
!        Design:         test
!        Project:        test_multiport
!        Setup:          Setup1
!        Solution:       Sweep
!
!Data is not renormalized
# GHZ S MA
! Terminal data exported
! Port[1] = 1
! Port[2] = 2
! Port[3] = 3
! Port[4] = 4
! Port[5] = 5
! Port[6] = 6
! Port[7] = 7
! Port[8] = 8
! Port[9] = 9
! Port[10] = 10
0.9                            0.000193350710138485 180              3.08679391628958E-06 4.24342038587274E-15 1.22683193168342E-08 -4.43601786926479E-20 7.10175196582743E-07 -1.86602865521901E-21 
                               4.19588223195314E-08 -7.38937706501246E-20 2.05588830543163E-06 180              7.45480011002231E-08 180              1.56459202903685E-10 -9.67918406851185E-21 
                               3.24167576910566E-07 -1.28818486331064E-14 4.14977430266022E-08 -6.87948409526358E-20 
                               3.08679391628958E-06 3.21605115657517E-15 0.000594644413474565 -179.999999999998 2.11968807092636E-08 -180             5.94279700804916E-08 -180             
                               1.232742260655E-07 -180             5.70633520804969E-07 3.05859205808594E-15 4.0433366797664E-08 3.09456859240271E-15 5.91998283177197E-11 -180             
                               2.20610108610536E-07 -180             1.07784880764663E-07 -180             
                               1.22683193168342E-08 -3.34463192973068E-20 2.11968807092637E-08 -180             0.000270053967511119 180              5.6951210230837E-09 1.35409998606611E-21 
                               3.55658676291831E-09 180              2.52729952990445E-09 -2.92017591152841E-20 3.40002723387799E-10 -1.54068921680934E-20 4.97412368527902E-13 180              
                               9.3214964822722E-10 180              2.09204250094719E-09 180              
                               7.10175196582743E-07 1.70593176616568E-21 5.94279700804919E-08 180              5.6951210230837E-09 -1.41210983640792E-21 0.00015051025782864 -180             
                               2.81185423450506E-07 -180             2.35376258378207E-06 180              1.33996736232896E-07 1.42365747006809E-22 1.74730533186914E-10 -180             
                               7.33838905030347E-08 180              3.00142760424137E-08 -1.28615945425544E-21 
                               4.19588223195313E-08 -1.5116836002444E-19 1.232742260655E-07 -180             3.55658676291831E-09 180              2.81185423450506E-07 180              
                               0.00145172945424621 180              4.86018077693505E-08 -2.38872984677391E-20 1.34544952185974E-09 -180             1.36912039698033E-12 8.75804493622126E-20 
                               2.22674834505304E-09 180              5.17841330318478E-09 4.27991751245263E-20 
                               2.05588830543163E-06 180              5.70633520804968E-07 -1.29483447864253E-15 2.52729952990445E-09 -1.34471992127535E-20 2.35376258378208E-06 -180             
                               4.86018077693505E-08 -3.79349813231712E-21 0.00044276168818147 180              5.4663706866994E-08 1.18565280404953E-21 5.07290372412393E-10 -180             
                               9.50951467452777E-08 -4.09021810349829E-15 2.58371197021455E-08 -180             
                               7.45480011002231E-08 180              4.04333667976642E-08 2.15401573805233E-15 3.400027233878E-10 -1.57226380104279E-20 1.33996736232896E-07 -9.81390605725474E-23 
                               1.34544952185974E-09 -180             5.46637068669939E-08 2.61159770700571E-21 0.00117924563624683 180              6.6032878382459E-12 -180             
                               1.15501666585454E-08 -4.86762085316126E-15 1.44415220109896E-09 -180             
                               1.56459202903686E-10 7.95420528313265E-23 5.91998283177198E-11 180              4.97412368527902E-13 -180             1.74730533186915E-10 180              
                               1.36912039698033E-12 -2.97972527024581E-21 5.07290372412394E-10 180              6.60328783824589E-12 180              0.00164595939262113 -180             
                               3.81361397042632E-12 -180             1.05356360158361E-12 -6.70877027306955E-22 
                               3.24167576910566E-07 -3.10087756681877E-15 2.20610108610536E-07 180              9.3214964822722E-10 180              7.33838905030346E-08 180              
                               2.22674834505305E-09 180              9.50951467452775E-08 -2.90057614537563E-15 1.15501666585454E-08 -2.91082505025842E-15 3.81361397042632E-12 180              
                               0.000939597261836789 -179.999999999996 2.8658191954516E-09 180              
                               4.14977430266024E-08 -3.04327673983043E-20 1.07784880764663E-07 180              2.0920425009472E-09 180              3.00142760424137E-08 7.65102339925059E-22 
                               5.17841330318478E-09 8.66404266807394E-21 2.58371197021455E-08 -180             1.44415220109896E-09 -180             1.05356360158361E-12 2.15802048842329E-20 
                               2.8658191954516E-09 180              0.00125534494567892 180              
! Gamma         59.9338042816462 0                76.2418713827651 0                59.9340042520162 0                103.007046602768 0                76.2410618050593 0                76.2413087871365 0                76.2414571834038 0                103.007367550146 0                103.007355479277 0                76.2411321047565 0                
! Port Impedance         0                29.2417700962256 0                57.3909726383666 0                58.4336522988494 0                28.3635582901802 0                57.4751867101215 0                28.7415986564088 0                57.3982201672004 0                56.6843055197958 0                56.6995277174557 0                57.4739193752513 
0.95                           0.000190292690312122 -180             3.21694824619785E-06 1.53901592250201E-24 1.36900176292094E-08 -1.3971663022136E-14 7.86429581499966E-07 -1.87555901409418E-24 
                               4.66144956774911E-08 1.83392759452995E-23 2.22445652064405E-06 -180             8.13804363663464E-08 -180             1.69365889994089E-10 7.32552263338767E-25 
                               3.18233031514537E-07 7.21887027307598E-25 4.63441051005689E-08 1.11220141869089E-23 
                               3.21694824619785E-06 1.48120753059324E-24 0.000593024655466623 -180             2.25809309715781E-08 180              6.41901148809063E-08 180              
                               1.33106557459651E-07 -180             6.19132307215074E-07 1.67731065530983E-24 4.434095818995E-08 2.93741187553105E-24 6.45731165291713E-11 -180             
                               2.28816069983816E-07 -180             1.16522217360576E-07 -180             
                               1.36900176292094E-08 -1.18415900292555E-14 2.25809309715781E-08 180              0.000269256449302535 -179.999999999964 6.42713090922714E-09 -1.25202253037798E-14 
                               3.96143333472673E-09 180              2.90748451567712E-09 -1.22450201420833E-14 3.94678840565852E-10 -1.10423577178247E-14 5.74339721126613E-13 180              
                               1.03749836662832E-09 180              2.34554052986022E-09 180              
                               7.86429581499967E-07 -1.03672609498024E-24 6.4190114880906E-08 180              6.42713090922714E-09 -7.154857104598E-15 0.00014038025940688 -180             
                               2.99156599101969E-07 180              2.49211086931419E-06 -180             1.45585579350765E-07 -1.47523306874923E-25 1.88958902630939E-10 180              
                               8.00099762993983E-08 180              3.33305279848202E-08 4.17619512154178E-24 
                               4.66144956774911E-08 1.32311254797202E-23 1.33106557459651E-07 -180             3.96143333472672E-09 180              2.9915659910197E-07 180              
                               0.00144353951449505 -180             5.18669214573283E-08 2.61507292048279E-24 1.51523597532886E-09 180              1.51073239615672E-12 -1.66675718333818E-23 
                               2.43829510650357E-09 -180             5.72357877088736E-09 -1.84091965558737E-23 
                               2.22445652064405E-06 -180             6.19132307215073E-07 1.41078768016086E-24 2.90748451567711E-09 -1.12609736690709E-14 2.49211086931419E-06 -180             
                               5.18669214573282E-08 2.89835774821952E-24 0.000440380872019697 -180             5.95398097229115E-08 -2.42341154871226E-25 5.41479915804267E-10 180              
                               1.01844948066765E-07 3.98749742269865E-25 2.89489251735341E-08 180              
                               8.13804363663467E-08 -180             4.43409581899499E-08 3.20024345181163E-24 3.94678840565851E-10 -1.38783328004963E-14 1.45585579350765E-07 -2.90460277413432E-25 
                               1.51523597532886E-09 180              5.95398097229118E-08 -3.15985020636153E-25 0.00117105824595387 -180             7.41731866779733E-12 180              
                               1.22447003681788E-08 5.37764607429311E-25 1.61844552963002E-09 180              
                               1.69365889994088E-10 6.57136771221151E-25 6.45731165291713E-11 -180             5.74339721126614E-13 180              1.8895890263094E-10 180              
                               1.51073239615673E-12 -2.08335035087446E-23 5.41479915804267E-10 180              7.41731866779735E-12 180              0.00163784956106017 -180             
                               3.97277073498872E-12 -180             1.19889398663639E-12 -1.58683756733451E-23 
                               3.18233031514538E-07 8.19571224593861E-25 2.28816069983816E-07 -180             1.03749836662832E-09 180              8.00099762993983E-08 180              
                               2.43829510650357E-09 -180             1.01844948066765E-07 5.5583575838986E-25 1.22447003681788E-08 5.87343568831075E-25 3.97277073498871E-12 -180             
                               0.000938021965542712 -180             3.15771785429425E-09 -180             
                               4.6344105100569E-08 1.37860574690729E-23 1.16522217360577E-07 -180             2.34554052986021E-09 180              3.33305279848202E-08 9.30625695770501E-24 
                               5.72357877088736E-09 -3.17788986902006E-23 2.89489251735342E-08 180              1.61844552963001E-09 180              1.19889398663639E-12 -2.20140784992948E-23 
                               3.15771785429424E-09 -180             0.00124657163839204 -180             
! Gamma         59.5938726454096 0                75.9749413501104 0                59.5940737564341 0                102.809631898142 0                75.9741289280073 0                75.9743767778461 0                75.9745256954948 0                102.8099534618   0                102.809941367753 0                75.9741994747005 0                
! Port Impedance         0                31.0423771481871 0                60.7921921986747 0                62.0317916850035 0                29.9967999994848 0                60.8814039339031 0                30.444946100571  0                60.7998712736456 0                59.9483229577467 0                59.9644209870421 0                60.8800615417481 
1                              0.000186794408816859 -179.999999999947 3.3578974286312E-06 -7.85766579844124E-15 1.53770031584096E-08 -2.27299221673406E-14 8.76906255142804E-07 -1.67877098611085E-14 
                               5.21899225718168E-08 -1.09204780990604E-14 2.41958090089028E-06 180              8.933001991663E-08 180              1.84161626241973E-10 -1.40761264157729E-14 
                               3.09654203589377E-07 -1.11912087409521E-14 5.21555238330096E-08 1.28958918228645E-14 
                               3.35789742863121E-06 -1.57125573436445E-14 0.000591302298542651 179.999999999996 2.41096316609112E-08 180              6.9701414831805E-08 -180             
                               1.44472036824373E-07 -180             6.7550462793068E-07 5.03515637504211E-15 4.89255972380102E-08 5.2182091813725E-15 7.08179713562298E-11 -180             
                               2.37697285138954E-07 -180             1.2663599923727E-07 -180             
                               1.53770031584096E-08 -2.22214708830469E-14 2.41096316609111E-08 180              0.000268467414926365 -179.999999999969 7.31309745960418E-09 -1.78391094268362E-14 
                               4.44289736690911E-09 180              3.37625291950821E-09 -7.40469695322446E-15 4.62675777903743E-10 -7.57187329056592E-15 6.69314011842982E-13 180              
                               1.16229336434789E-09 180              2.64918371087554E-09 -180             
                               8.76906255142802E-07 -1.10546167610171E-14 6.97014148318053E-08 -180             7.31309745960417E-09 -1.64135841170576E-14 0.000129511808719895 179.999999999988 
                               3.19584299481056E-07 180              2.64887373548503E-06 180              1.59046107410386E-07 -1.7226596918242E-15 2.05359950193712E-10 180              
                               8.77471103272326E-08 180              3.72710105487147E-08 2.82698931944057E-14 
                               5.21899225718169E-08 -2.35566157740668E-14 1.44472036824373E-07 -180             4.44289736690911E-09 180              3.19584299481056E-07 180              
                               0.00143491475496393 -180             5.55500890998737E-08 -1.59199242350396E-19 1.72053726554305E-09 180              1.67895102979556E-12 9.79135431645754E-15 
                               2.69002044936878E-09 -180             6.3671510038873E-09 1.20352270319664E-14 
                               2.41958090089028E-06 180              6.75504627930681E-07 9.19406275256475E-15 3.37625291950822E-09 -1.36956187261063E-14 2.64887373548504E-06 180              
                               5.55500890998735E-08 -2.31296506971294E-19 0.000437834916149904 -180             6.52226645845021E-08 5.64079581016993E-20 5.80172699454264E-10 -180             
                               1.0959523661693E-07 5.91279785841832E-20 3.26853846272976E-08 -180             
                               8.933001991663E-08 180              4.89255972380102E-08 6.71038945174495E-15 4.62675777903743E-10 -1.5143874774418E-14 1.59046107410386E-07 -4.51488294290036E-15 
                               1.72053726554305E-09 180              6.52226645845021E-08 2.99118360853052E-21 0.00116246034317469 -180             8.38500232178765E-12 180              
                               1.30252783699909E-08 3.30562253457045E-20 1.82781307589128E-09 -180             
                               1.84161626241973E-10 -1.06312416273571E-14 7.081797135623E-11 -180             6.69314011842983E-13 180              2.05359950193713E-10 180              
                               1.67895102979556E-12 -8.46935902486555E-16 5.80172699454264E-10 180              8.38500232178763E-12 180              0.0016293168807967 -179.999999999999 
                               4.14022114877127E-12 180              1.37553567059986E-12 2.53413337717006E-14 
                               3.09654203589377E-07 -1.74298753326E-14 2.37697285138954E-07 -180             1.16229336434788E-09 180              8.77471103272325E-08 180              
                               2.69002044936877E-09 -180             1.09595236616929E-07 9.45589251440717E-20 1.3025278369991E-08 3.72533997325349E-20 4.14022114877126E-12 180              
                               0.000936372521572415 -180             3.50237689852702E-09 -180             
                               5.21555238330096E-08 -1.2310661681233E-14 1.26635999237269E-07 -180             2.64918371087553E-09 180              3.72710105487147E-08 3.49102941011395E-16 
                               6.3671510038873E-09 1.12443347563135E-14 3.26853846272977E-08 -180             1.82781307589127E-09 -180             1.37553567059986E-12 -6.57733366622973E-16 
                               3.50237689852702E-09 -180             0.00123735881847042 179.99999999999  
! Gamma         59.2334545244992 0                75.6925636451912 0                59.233656859221  0                102.601134930663 0                75.691748192244  0                75.6919969667254 0                75.6921464399314 0                102.601457147772 0                102.601445029149 0                75.6918190021232 0                
! Port Impedance         0                32.8750098173104 0                64.2305001879975 0                65.6939271042407 0                31.6397430498293 0                64.3247652770622 0                32.1668684654083 0                64.23861587096   0                63.2317282915694 0                63.2487072364435 0                64.3233470179526 
1.05                           0.000182782574049595 -179.9999999999  3.50974322939011E-06 -1.20573908144841E-14 1.7387259857695E-08 -2.08385066423677E-14 9.84876419635131E-07 -2.95347532832173E-14 
                               5.89125045692807E-08 -1.98660219859592E-14 2.64632939700563E-06 180              9.86134271587849E-08 180              2.01157513307649E-10 -2.50437554629976E-14 
                               2.97645670588796E-07 -3.02747905448591E-14 5.91707553409586E-08 2.33361517443817E-14 
                               3.50974322939012E-06 -2.62192647933135E-14 0.00058947215159122 179.999999999993 2.57889778685328E-08 180              7.61088147345895E-08 -180             
                               1.5766170257244E-07 -180             7.41317969732924E-07 1.02486514372209E-14 5.43307113598072E-08 1.06222315687201E-14 7.81040307024938E-11 -180             
                               2.47270226873873E-07 -180             1.38390934363452E-07 -180             
                               1.7387259857695E-08 -2.29493988475872E-14 2.57889778685327E-08 -180             0.0002676976800829 -179.999999999996 8.39297437369148E-09 -1.33434239099415E-14 
                               5.01854966961074E-09 -180             3.95905807050382E-09 4.51453917145634E-15 5.47982611994284E-10 2.4847637576396E-15 7.87512384971927E-13 180              
                               1.310785817373E-09 -180             3.01504296569717E-09 -180             
                               9.84876419635125E-07 -1.93809062191811E-14 7.61088147345909E-08 -180             8.39297437369147E-09 -1.87672626513734E-14 0.000117865614516743 179.999999999969 
                               3.42864253144154E-07 180              2.82696012685566E-06 180              1.74743724456324E-07 -2.61595807445279E-15 2.24329899772462E-10 180              
                               9.68243270873174E-08 180              4.19797588651119E-08 5.13551467794093E-14 
                               5.89125045692809E-08 -4.285310008009E-14 1.5766170257244E-07 -180             5.01854966961075E-09 180              3.42864253144152E-07 180              
                               0.00142585656372176 -180             5.97054873954209E-08 -2.52067321109374E-19 1.97055173742034E-09 180              1.88008771837205E-12 1.12099530482692E-14 
                               2.99156371461688E-09 180              7.13068259293092E-09 2.15241329461175E-14 
                               2.64632939700563E-06 180              7.41317969732925E-07 1.58418461273469E-14 3.95905807050384E-09 -8.42124899604769E-15 2.82696012685567E-06 180              
                               5.97054873954208E-08 -3.94525487480098E-19 0.000435113838845317 -180             7.18745967391513E-08 9.4427077546835E-20 6.24037273173731E-10 -180             
                               1.18526341602827E-07 -1.69223912852707E-15 3.72010367140263E-08 -180             
                               9.86134271587844E-08 180              5.43307113598075E-08 1.2892940851096E-14 5.47982611994287E-10 -7.18449877909025E-15 1.74743724456324E-07 -6.33056690897852E-15 
                               1.97055173742034E-09 180              7.18745967391509E-08 -2.69389797865552E-21 0.00115345745714499 -180             9.54099430927466E-12 180              
                               1.39033619924025E-08 -1.93206269654661E-15 2.08098209144015E-09 -180             
                               2.0115751330765E-10 -1.88738130407465E-14 7.81040307024942E-11 -180             7.87512384971928E-13 180              2.24329899772462E-10 180              
                               1.88008771837203E-12 -1.81208978458601E-15 6.24037273173731E-10 180              9.54099430927459E-12 180              0.00162036403299141 -179.999999999998 
                               4.31392676107861E-12 -180             1.59174402170246E-12 4.54321503526688E-14 
                               2.97645670588795E-07 -3.71368832582007E-14 2.47270226873874E-07 -180             1.310785817373E-09 180              9.68243270873171E-08 180              
                               2.99156371461687E-09 180              1.18526341602826E-07 -1.19995730675321E-15 1.39033619924026E-08 -1.15533783764004E-15 4.3139267610786E-12 180              
                               0.000934650773177119 -179.999999999998 3.91161066439368E-09 -180             
                               5.91707553409585E-08 -2.22771722658132E-14 1.38390934363451E-07 -180             3.01504296569718E-09 -180             4.19797588651118E-08 1.0832014244085E-15 
                               7.13068259293091E-09 2.01096710444563E-14 3.72010367140263E-08 -180             2.08098209144015E-09 -180             1.59174402170246E-12 -2.8058625890288E-15 
                               3.9116106643937E-09 -180             0.00122771216758851 179.999999999982 
! Gamma         58.8521735346836 0                75.3945646982057 0                58.8523771802511 0                102.381487994221 0                75.3937460221248 0                75.393995779912  0                75.3941458439223 0                102.381810902605 0                102.381798757982 0                75.3938171118877 0                
! Port Impedance         0                34.742392505354  0                67.7085825485472 0                69.425502647215  0                33.2930022377187 0                67.8079607387152 0                33.9087109627918 0                67.7171402750444 0                66.5357501757546 0                66.5536154410536 0                67.8064657445193 
1.1                            0.000178167858227774 180              3.67231808340867E-06 -3.25745474322884E-23 1.97921196827509E-08 9.81002950949501E-22 1.11451052794484E-06 3.075062221299E-15 
                               6.7077011391131E-08 -1.6857481233457E-21 2.91097803080135E-06 -180             1.09496548776148E-07 180              2.20721730207202E-10 -1.4952151739431E-15 
                               2.81241590383355E-07 -5.16537674195996E-22 6.76983975520685E-08 1.33523232006984E-21 
                               3.67231808340867E-06 1.99734138422738E-22 0.000587527503347562 -180             2.76209551591524E-08 180              8.35972796660146E-08 180              
                               1.73036665736623E-07 -180             8.18532500210613E-07 -2.54612140380245E-21 6.07365863083663E-08 2.15063981849895E-21 8.66408915565838E-11 180              
                               2.57540821657697E-07 -180             1.52116270264158E-07 180              
                               1.97921196827509E-08 1.09777729095645E-21 2.76209551591524E-08 -180             0.000266959710488179 180              9.71855925409848E-09 3.81886659443957E-15 
                               5.71057203353115E-09 -180             4.68942947363207E-09 -1.03639707822104E-20 6.55877876332282E-10 5.11697641843181E-21 9.3571588169703E-13 180              
                               1.48824304007962E-09 -180             3.45848610971873E-09 180              
                               1.11451052794484E-06 2.34990411704655E-15 8.3597279666015E-08 -180             9.71855925409849E-09 2.88035102671502E-15 0.000105397457646816 179.999999999961 
                               3.69475191517839E-07 -180             3.02989716330012E-06 -180             1.93131382635268E-07 2.13203365318987E-15 2.46354639427652E-10 180              
                               1.07529454266145E-07 -180             4.76399036653482E-08 2.79026158420142E-15 
                               6.70770113911311E-08 -6.34688942712872E-20 1.73036665736624E-07 180              5.71057203353116E-09 -180             3.69475191517838E-07 -180             
                               0.00141636643586662 180              6.43935413741948E-08 1.7355698446376E-19 2.27722344373916E-09 -180             2.12232008123874E-12 -3.12820889133465E-14 
                               3.35538835329129E-09 180              8.04125804052813E-09 -2.35946799634818E-20 
                               2.91097803080135E-06 -180             8.18532500210613E-07 1.4077372514107E-21 4.68942947363206E-09 -3.17597517252461E-20 3.02989716330012E-06 -180             
                               6.43935413741949E-08 6.15404784168945E-20 0.000432205528795859 180              7.96979791061938E-08 -3.16415153965792E-20 6.7386473959465E-10 180              
                               1.28860896631556E-07 1.13205631839811E-20 4.26947539822414E-08 -180             
                               1.09496548776148E-07 180              6.07365863083663E-08 -1.67332363065809E-21 6.55877876332281E-10 1.94698797442353E-20 1.93131382635268E-07 8.08544866203605E-15 
                               2.27722344373916E-09 -180             7.96979791061939E-08 -4.3448448767215E-20 0.00114405550334962 180              1.09287082606776E-11 180              
                               1.48922045090666E-08 -8.67817201850309E-21 2.38921539899521E-09 180              
                               2.20721730207202E-10 -9.37533252003408E-16 8.6640891556584E-11 180              9.35715881697029E-13 180              2.46354639427652E-10 180              
                               2.12232008123874E-12 -1.36681074984984E-15 6.73864739594648E-10 -180             1.09287082606776E-11 180              0.00161099389157537 179.999999999999 
                               4.49092656406588E-12 180              1.85820382764207E-12 -1.84935842384783E-15 
                               2.81241590383356E-07 -1.3447534018E-21 2.57540821657697E-07 180              1.48824304007962E-09 -180             1.07529454266145E-07 -180             
                               3.3553883532913E-09 180              1.28860896631556E-07 7.08024019291204E-21 1.48922045090666E-08 -4.09694835598529E-21 4.49092656406589E-12 180              
                               0.000932858694287941 180              4.40046927189695E-09 -180             
                               6.76983975520686E-08 2.97650425961864E-22 1.52116270264158E-07 -180             3.45848610971872E-09 180              4.76399036653482E-08 2.19260218172075E-15 
                               8.04125804052814E-09 1.33077255249136E-21 4.26947539822415E-08 -180             2.38921539899521E-09 180              1.85820382764207E-12 -7.83590398664404E-15 
                               4.40046927189696E-09 -180             0.00121763770164907 180              
! Gamma         58.4496213967985 0                75.0807585051224 0                58.4498264449014 0                102.150619163974 0                75.0799364072804 0                75.0801872089698 0                75.0803379001932 0                102.150942802156 0                102.150930630086 0                75.0800077941748 0                
! Port Impedance         0                36.647460684233  0                71.2292601326776 0                73.2323841767873 0                34.9572100810015 0                71.3338154357924 0                35.6718863750029 0                71.2382657318788 0                69.8616526801978 0                69.8804100007198 0                71.332242777009  
