! Touchstone file exported from HFSS 2020.2.0
!        Generated:      11:07:52  avr. 27, 2020
!        Design:         test
!        Project:        test_multiport
!        Setup:          Setup1
!        Solution:       Sweep
!
!Data is not renormalized
# GHZ S MA
! Terminal data exported
! Port[1] = 1
! Port[2] = 2
! Port[3] = 3
! Port[4] = 4
! Port[5] = 5
! Port[6] = 6
! Port[7] = 7
! Port[8] = 8
! Port[9] = 9
! Port[10] = 10
! Port[11] = 11
! Port[12] = 12
! Port[13] = 13
! Port[14] = 14
! Port[15] = 15
! Port[16] = 16
0.9                            0.000191774781632792 -180             3.09462873039041E-06 -8.02695349281006E-23 1.25855546292819E-08 8.98726553653333E-15 7.04639266139922E-07 -1.15855019472126E-14 
                               3.99502378309109E-08 -2.56092418112353E-14 2.04962354242255E-06 180              8.37140295409774E-08 -180             2.3770819156904E-10 2.61537498208725E-21 
                               2.55873589732239E-07 1.35342367608584E-14 4.23708517648646E-08 -6.74996375923895E-21 1.6913361313138E-06 1.5020693928016E-21 5.97906088251359E-07 -5.00047349687279E-20 
                               6.32867817723661E-09 -1.10412378325641E-19 6.43371390130959E-07 -180             1.14396097934078E-06 -180             1.08949922293589E-07 180              
                               3.09462873039042E-06 1.08687722878828E-21 0.000411856529162091 180              2.12170814446416E-08 -180             5.28485849665276E-08 180              
                               1.19966934487251E-07 180              5.66697397846346E-07 -2.34367665196042E-20 4.46777433023728E-08 1.82375662275908E-20 8.59031286261727E-11 -180             
                               1.97574299294117E-07 -180             1.06717140607699E-07 180              5.94020510605377E-07 -180             4.09006614437221E-08 180              
                               5.49421054232644E-09 180              4.47451227799501E-07 -3.3157741958298E-16 6.22766180056447E-07 4.16671296207523E-20 1.88342627415717E-07 -2.83128513742905E-21 
                               1.25855546292819E-08 -7.00156136876436E-17 2.12170814446416E-08 180              0.000310849889840092 179.999999999997 5.69005972447293E-09 -1.83189903019549E-14 
                               3.66065936558468E-09 180              2.62944776663565E-09 -3.2068179193651E-16 3.833043373335E-10 -1.02481381365055E-16 6.60073572100461E-13 -180             
                               8.652132892287E-10 -180             2.08392679719405E-09 -180             2.73889508522168E-09 -180             4.3241853304515E-09 -6.67556588920242E-16 
                               8.10386909085553E-11 -180             5.43811722779562E-09 5.82290295642532E-15 6.04229870076996E-09 -1.02878152569714E-16 2.45438224217411E-09 6.71096079325656E-17 
                               7.04639266139922E-07 -1.08057185366413E-14 5.28485849665287E-08 180              5.69005972447294E-09 -4.90535992647727E-15 0.000507365348340061 -179.99999999998 
                               2.71071430029867E-07 180              2.33319838763822E-06 180              1.45024880158113E-07 -1.10654995715964E-14 8.69325556111741E-11 180              
                               6.47382743313588E-08 180              3.03507737759162E-08 -1.29614582586455E-14 3.01608334406756E-07 180              3.2801256054272E-06 -1.08479133302036E-14 
                               7.80299343400704E-08 -1.09342641300257E-14 2.25373294101022E-06 -1.35079189264196E-14 4.67998757325548E-06 -1.09051662188248E-14 8.44822045883876E-08 180              
                               3.99502378309109E-08 -2.38313396055198E-15 1.19966934487252E-07 180              3.66065936558468E-09 -180             2.71071430029867E-07 180              
                               0.00175138393184715 -179.999999999998 4.66545183569012E-08 -5.22450687823506E-15 1.52739052488736E-09 -180             8.80767318472162E-13 180              
                               2.09593794669328E-09 -180             4.9951807948482E-09 -1.7704072525913E-15 2.83846792961612E-08 -2.58814885121666E-15 2.836617105395E-08 6.57652368435996E-16 
                               1.03556947315909E-09 -2.57477606841539E-16 4.91011697759864E-08 -180             3.28165302256436E-08 -180             9.70041636883029E-09 -2.73999369053334E-15 
                               2.04962354242255E-06 180              5.66697397846347E-07 -3.54236464700829E-21 2.62944776663564E-09 9.7434530605155E-15 2.33319838763822E-06 180              
                               4.66545183569014E-08 -1.84214512172054E-14 0.000540174694774853 -180             5.98409869395228E-08 1.13660118773735E-19 4.90373483955348E-10 -180             
                               8.88206378461047E-08 1.56747453708612E-15 2.55084909593402E-08 180              3.8301315879227E-07 -180             2.62521336294294E-07 5.98459279041397E-19 
                               2.89780153409851E-09 180              5.69946349820614E-07 1.45392410079684E-15 1.96537983581698E-06 1.10326884960322E-19 1.60359653274812E-08 -180             
                               8.37140295409773E-08 -180             4.46777433023728E-08 -2.12206459435449E-21 3.833043373335E-10 8.2755048526454E-15 1.45024880158113E-07 -1.57873273502571E-14 
                               1.52739052488735E-09 180              5.98409869395224E-08 9.08977235090276E-20 0.00153097744362418 -180             1.62972023512738E-11 180              
                               1.21275084572072E-08 1.00252652711651E-14 1.37148727144337E-09 -180             3.15966918381068E-07 180              2.65607736275896E-07 -3.32149878910578E-20 
                               6.39944193478945E-10 -3.15650413658805E-19 1.05495942484369E-07 -180             4.68179100649259E-09 -180             4.51604732826167E-09 180              
                               2.37708191569041E-10 5.29990807896204E-21 8.59031286261727E-11 180              6.60073572100461E-13 -180             8.69325556111742E-11 180              
                               8.80767318472163E-13 180              4.90373483955348E-10 -180             1.62972023512738E-11 180              0.00105404625760608 -180             
                               9.94903500837099E-12 -180             2.81310526920951E-12 1.85726020381646E-20 5.59837052556397E-11 -1.62223913505471E-20 1.33899728120375E-10 180              
                               5.3843912142703E-13 180              3.60406755627205E-11 1.00871200361292E-14 3.85057714121576E-11 2.2945683956182E-19 5.80026954861325E-12 -3.57372083465424E-20 
                               2.55873589732237E-07 1.83303266911095E-15 1.97574299294117E-07 -180             8.65213289228698E-10 -180             6.47382743313587E-08 180              
                               2.09593794669328E-09 180              8.88206378461047E-08 6.74314489218119E-16 1.21275084572072E-08 1.48934477594666E-15 9.94903500837099E-12 -180             
                               0.00110226754924037 179.999999999997 2.44535643831031E-09 -180             2.98063846131935E-07 -180             8.55311325669904E-08 -180             
                               5.464437369526E-10 -180             6.13399385500215E-08 2.31998721603472E-15 1.0755615799523E-07 1.55439703713677E-15 9.46926391265486E-09 1.02574502847435E-15 
                               4.23708517648646E-08 -8.50228052938316E-21 1.06717140607699E-07 180              2.08392679719405E-09 -180             3.03507737759163E-08 -1.90374991681953E-14 
                               4.9951807948482E-09 -9.84268211499095E-15 2.55084909593403E-08 180              1.37148727144337E-09 -180             2.81310526920951E-12 1.6142665198131E-20 
                               2.44535643831031E-09 -180             0.00125784945787555 -180             4.89614752469721E-08 180              2.42977272747288E-07 -180             
                               9.22140148741159E-10 -5.41401045732042E-20 4.86831653257292E-08 -180             2.87229890170785E-08 -180             3.71524152617104E-08 1.56191151221298E-21 
                               1.6913361313138E-06 3.39314787270606E-21 5.9402051060538E-07 -180             2.73889508522168E-09 -180             3.01608334406755E-07 180              
                               2.83846792961612E-08 -1.63121899722162E-14 3.83013158792271E-07 -180             3.15966918381068E-07 180              5.59837052556398E-11 -1.04625254887666E-20 
                               2.98063846131935E-07 -180             4.8961475246972E-08 180              0.000564514656248294 180              2.23092912085221E-06 5.73974620689055E-21 
                               2.48568351276249E-09 1.43384780736637E-19 5.87440013562456E-07 -180             1.67321916183334E-06 180              2.21549303624432E-08 -1.25050986939868E-20 
                               5.97906088251359E-07 -5.76592982102392E-20 4.09006614437226E-08 180              4.3241853304515E-09 5.72882033242516E-15 3.2801256054272E-06 -1.18436856576539E-14 
                               2.83661710539499E-08 -2.55407217370633E-14 2.62521336294294E-07 4.07768488195005E-19 2.65607736275896E-07 -2.56763334696051E-20 1.33899728120375E-10 180              
                               8.55311325669904E-08 -180             2.42977272747288E-07 -180             2.2309291208522E-06 2.6537046108061E-21 0.0011494498553406 -180             
                               5.04677749487385E-08 -5.64767794040719E-20 2.20862407407646E-06 3.4779577576442E-15 3.47921951008878E-06 -6.3096461808832E-20 1.01346715975787E-07 180              
                               6.32867817723662E-09 -1.78647844201059E-19 5.49421054232644E-09 180              8.10386909085554E-11 -180             7.80299343400705E-08 -1.95663510339176E-14 
                               1.03556947315909E-09 -1.97840885463796E-14 2.89780153409851E-09 180              6.39944193478945E-10 -3.62825165434474E-19 5.38439121427032E-13 180              
                               5.464437369526E-10 -180             9.22140148741159E-10 -5.89059119125375E-20 2.4856835127625E-09 1.74243697356763E-19 5.04677749487385E-08 -9.95981302203811E-20 
                               0.000598171485779453 -180             3.43069979493107E-08 6.25978213873802E-16 1.33070999871936E-08 -5.63324702381355E-19 9.82505200909235E-10 1.28373406130136E-19 
                               6.43371390130959E-07 -180             4.47451227799501E-07 5.07723245967941E-15 5.43811722779562E-09 8.2856171297444E-15 2.25373294101022E-06 -3.15561976120424E-15 
                               4.91011697759864E-08 180              5.69946349820614E-07 6.51090300525038E-15 1.05495942484369E-07 -180             3.60406755627206E-11 5.65902706752063E-15 
                               6.13399385500213E-08 1.10087816783037E-14 4.86831653257292E-08 -180             5.87440013562459E-07 -180             2.20862407407646E-06 5.40116990638718E-15 
                               3.43069979493106E-08 5.4634343482502E-15 0.0006897238049417 179.999999999993 3.08720564271788E-06 -180             6.60309214135293E-08 -180             
                               1.14396097934077E-06 -180             6.22766180056446E-07 -9.57894812136823E-21 6.04229870076995E-09 1.2992639711499E-14 4.67998757325546E-06 -2.6344076376011E-14 
                               3.28165302256436E-08 180              1.96537983581697E-06 1.44037597786601E-19 4.68179100649262E-09 -180             3.85057714121576E-11 2.46021257808355E-19 
                               1.0755615799523E-07 2.96017716413917E-15 2.87229890170784E-08 -180             1.67321916183334E-06 180              3.47921951008878E-06 -1.36946006164112E-19 
                               1.33070999871936E-08 -8.14418408364219E-19 3.08720564271786E-06 -180             0.000320959979537738 -180             6.62059889011135E-08 180              
                               1.0894992229359E-07 180              1.88342627415718E-07 -5.30288155240709E-22 2.45438224217411E-09 2.13698073221412E-15 8.44822045883877E-08 180              
                               9.70041636883028E-09 -9.14151426820693E-15 1.60359653274811E-08 -180             4.51604732826167E-09 180              5.80026954861325E-12 -1.65039209203394E-20 
                               9.46926391265483E-09 8.63347041457673E-15 3.71524152617105E-08 1.15029273824639E-21 2.21549303624432E-08 -1.22735574994043E-20 1.01346715975788E-07 180              
                               9.82505200909231E-10 8.57552252616682E-20 6.60309214135294E-08 -180             6.62059889011135E-08 180              0.000867813604616852 -180             
! Gamma         59.933805297718  0                76.2426172701838 0                59.9340073758098 0                103.007084141917 0                76.2410888288943 0                76.2412949086996 0                76.2414484329919 0                103.007356827231 0                103.007298681942 0                76.241135352991  0                76.241195944325  0                103.007100666905 0                59.9337514613693 0                76.241501558761  0                59.9337116758373 0                103.007725606026 0                
! Port Impedance         0                29.2415989048506 0                57.315883014986  0                58.4339597462791 0                28.3628022693293 0                57.4770313543703 0                28.7404910830752 0                57.3860565914306 0                56.6850717889391 0                56.7014788069229 0                57.4738464637621 0                28.7423040749392 0                28.362823234232  0                58.4896819668383 0                57.4002319984946 0                29.2522746396181 0                56.671232465258  
0.95                           0.000188578121425809 180              3.2247389824154E-06 -6.55652447352339E-15 1.40369889455359E-08 3.90408688290405E-15 7.80050795939949E-07 1.11117301045961E-14 
                               4.44138766100563E-08 2.59576745806881E-20 2.21795875555106E-06 -180             9.13359623347936E-08 -180             2.56900256711618E-10 8.59433509587661E-15 
                               2.48635619119519E-07 2.32957466601301E-14 4.72928031037122E-08 -1.94001103307569E-14 1.83700604291491E-06 2.7352525260381E-14 6.61771576167054E-07 2.26798348256978E-19 
                               7.38317743628116E-09 8.65484312553098E-15 7.12278617641174E-07 -180             1.26331585392257E-06 -180             1.18021529590057E-07 -180             
                               3.22473898241541E-06 -3.68618517977484E-15 0.000410090096134685 -179.999999999987 2.25928200923193E-08 -180             5.70094608236484E-08 -180             
                               1.29519156228243E-07 180              6.1483138609846E-07 -4.37343045147556E-15 4.89607707992877E-08 -4.1582299989762E-15 9.34199165416223E-11 -180             
                               2.04943553003347E-07 -180             1.15338168113409E-07 180              6.43949997840574E-07 -180             4.39077231494378E-08 180              
                               6.26615160030369E-09 -180             4.89489866306002E-07 -4.88252811454167E-15 6.8926930033772E-07 -3.86885841666067E-15 1.95178375211759E-07 -4.8234789637704E-15 
                               1.40369889455359E-08 1.66270428047795E-15 2.25928200923193E-08 180              0.000310629987729794 179.999999999998 6.42452823753418E-09 6.36855835387995E-15 
                               4.07327467169249E-09 -180             3.02314242857642E-09 1.5782844194247E-15 4.44561683930444E-10 2.04189201098366E-15 7.60884418977227E-13 -180             
                               9.62783063903638E-10 -180             2.33657299570464E-09 180              3.14532343099615E-09 -180             4.91440573090157E-09 1.37999287023553E-15 
                               9.54739170741436E-11 -180             6.19997052560984E-09 1.56392906356677E-15 7.04238927566305E-09 1.53573370673602E-15 2.49386017777938E-09 1.59723556341385E-15 
                               7.80050795939948E-07 2.41249576310858E-15 5.70094608236481E-08 -180             6.42452823753419E-09 1.14055414602065E-14 0.000495038620004995 179.999999999998 
                               2.88325110883424E-07 -180             2.47008221268404E-06 -180             1.57464019441626E-07 2.61124940998424E-15 9.58472470156581E-11 -180             
                               7.06129005173243E-08 -180             3.36928162312496E-08 -1.89297458720669E-14 3.31317062303997E-07 -180             3.47735681462109E-06 2.28436238436825E-15 
                               8.5211528649135E-08 1.04393455381201E-14 2.34422751392676E-06 2.78249927180609E-15 5.00913034513341E-06 2.00766558400936E-15 9.14465941678547E-08 -180             
                               4.44138766100562E-08 -4.35336389816113E-20 1.29519156228243E-07 -180             4.0732746716925E-09 -180             2.88325110883424E-07 -180             
                               0.00174392048085714 180              4.97495450174943E-08 9.06352521925188E-20 1.71894099611197E-09 -180             9.2221451577639E-13 180              
                               2.29538915697579E-09 -180             5.52272836394801E-09 -1.87170902176914E-14 3.17091170382095E-08 2.5691649040017E-14 3.1334237474395E-08 -1.58157407040898E-19 
                               1.1771720036645E-09 8.65457349509559E-15 5.39938541205731E-08 -180             3.68897801050823E-08 -180             1.05328306003041E-08 1.20447250638072E-20 
                               2.21795875555105E-06 -180             6.14831386098458E-07 -7.35179715297559E-16 3.02314242857643E-09 8.20436586400397E-15 2.47008221268404E-06 180              
                               4.97495450174943E-08 -1.38850414944324E-20 0.000535339330952511 180              6.51419002182809E-08 3.78139838975984E-20 5.27426263298883E-10 -180             
                               9.51179252137012E-08 2.65409519815426E-15 2.85951452520439E-08 180              4.15998752333956E-07 -180             2.88226398760286E-07 -5.74140412802846E-20 
                               3.32125781753581E-09 -180             6.1798968703976E-07 4.10278864973236E-21 2.12621919925416E-06 9.11829006655441E-21 1.77877313269158E-08 -180             
                               9.13359623347936E-08 -180             4.89607707992878E-08 -5.73078373166632E-15 4.44561683930445E-10 1.87337879391349E-15 1.57464019441626E-07 1.12893123923784E-14 
                               1.71894099611197E-09 -180             6.5141900218281E-08 -4.14984655159895E-20 0.00152075304341881 180              1.77997211288403E-11 -180             
                               1.28563120227496E-08 2.58005971138193E-15 1.54321603075868E-09 180              3.3718999027953E-07 -180             2.84843656131144E-07 -2.51739353108467E-20 
                               7.21592954019845E-10 8.65490648526167E-15 1.10542713255139E-07 180              8.15693592322957E-09 2.53844232642176E-18 5.00264952212954E-09 -180             
                               2.56900256711618E-10 5.63718203353807E-15 9.34199165416219E-11 -180             7.60884418977227E-13 -180             9.58472470156581E-11 -180             
                               9.22214515776389E-13 -180             5.27426263298883E-10 -180             1.77997211288404E-11 -180             0.00105019496008973 179.999999999994 
                               1.04544186153838E-11 -180             3.14995424823874E-12 -7.15784715780129E-15 6.09460077393364E-11 2.26777095833454E-14 1.46789058836874E-10 -180             
                               6.11171133323375E-13 -180             3.76716417552575E-11 5.792328911963E-15 3.58620333962672E-11 5.88399955969077E-15 6.44023831686144E-12 5.56364952973871E-15 
                               2.48635619119518E-07 -8.52904936094366E-16 2.04943553003347E-07 180              9.62783063903633E-10 180              7.06129005173241E-08 -180             
                               2.29538915697579E-09 180              9.51179252137013E-08 -7.0449990898469E-16 1.28563120227496E-08 -1.21559924823637E-15 1.04544186153838E-11 -180             
                               0.00109901079581487 179.999999999999 2.70131725826787E-09 180              3.14450780957769E-07 -180             9.22865164577212E-08 180              
                               6.26038822991066E-10 -180             6.63540243630442E-08 -1.20953151110185E-15 1.15804189268449E-07 -1.5633770997377E-15 1.01681845689802E-08 -8.32541009383708E-16 
                               4.72928031037122E-08 -6.45332176159073E-15 1.15338168113409E-07 180              2.33657299570464E-09 -180             3.36928162312495E-08 -3.1354015800008E-15 
                               5.52272836394802E-09 -6.96711080087076E-15 2.85951452520439E-08 180              1.54321603075868E-09 180              3.14995424823873E-12 3.34036066739115E-15 
                               2.70131725826787E-09 -180             0.00124895039889583 -179.999999999996 5.24933000560271E-08 -180             2.58794766636067E-07 180              
                               1.05064377051167E-09 5.2917775523565E-16 5.34731412358796E-08 180              3.23543124247536E-08 180              3.93828560145779E-08 -7.30829932658534E-15 
                               1.83700604291491E-06 1.7893659346568E-14 6.43949997840574E-07 -180             3.14532343099615E-09 -180             3.31317062303997E-07 -180             
                               3.17091170382096E-08 1.74540170001475E-14 4.15998752333956E-07 -180             3.37189990279529E-07 -180             6.09460077393364E-11 2.35673509866195E-14 
                               3.14450780957769E-07 -180             5.24933000560271E-08 -180             0.000558548512566759 179.999999999968 2.36334273437216E-06 1.703626217513E-14 
                               2.85632094486312E-09 2.52862032964276E-14 6.36803929926324E-07 -180             1.81914054607142E-06 -180             2.43896264936427E-08 1.75791329041448E-14 
                               6.61771576167054E-07 1.86688225398198E-19 4.39077231494376E-08 180              4.91440573090157E-09 6.29186193219267E-15 3.4773568146211E-06 1.62180729018563E-14 
                               3.13342374743951E-08 -5.16547199265617E-19 2.88226398760286E-07 -5.82891939325788E-19 2.84843656131145E-07 -7.83138704523931E-21 1.46789058836875E-10 -180             
                               9.22865164577212E-08 180              2.58794766636068E-07 180              2.36334273437216E-06 1.5937166065111E-14 0.00113722991390186 180              
                               5.53620792733257E-08 8.65479485713576E-15 2.29893263112639E-06 5.45292090657231E-20 3.74282677766996E-06 6.28204161696568E-20 1.08870484035927E-07 -180             
                               7.38317743628112E-09 8.38539076976336E-15 6.26615160030369E-09 -180             9.54739170741435E-11 -180             8.5211528649135E-08 1.929922289188E-14 
                               1.1771720036645E-09 7.62833908724916E-15 3.3212578175358E-09 -180             7.21592954019843E-10 9.06332088102953E-15 6.11171133323375E-13 -180             
                               6.26038822991067E-10 -180             1.05064377051167E-09 -2.61983535822911E-15 2.85632094486312E-09 2.81484804274677E-14 5.53620792733255E-08 7.53520630208735E-15 
                               0.000593685231392471 179.999999999985 3.67449059512196E-08 9.13000516033333E-15 1.48801497335474E-08 8.30959663141042E-15 1.09282143890619E-09 8.61177578764381E-15 
                               7.12278617641173E-07 -180             4.89489866306002E-07 -5.28795548732266E-15 6.19997052560983E-09 1.49412769888444E-15 2.34422751392676E-06 5.99173353906167E-15 
                               5.3993854120573E-08 -180             6.17989687039761E-07 -6.16177148968082E-20 1.10542713255138E-07 180              3.76716417552574E-11 1.32583954973209E-14 
                               6.63540243630444E-08 -7.12998928569068E-16 5.34731412358797E-08 180              6.36803929926324E-07 -180             2.2989326311264E-06 6.69072322068822E-21 
                               3.67449059512197E-08 8.6547379508016E-15 0.000685591843239686 180              3.21273118285421E-06 180              7.14561734915832E-08 -180             
                               1.26331585392257E-06 -180             6.89269300337719E-07 -4.6000356967326E-15 7.04238927566305E-09 1.11456286754047E-16 5.00913034513341E-06 1.04565772769546E-14 
                               3.68897801050821E-08 -180             2.12621919925416E-06 -6.29408058217237E-20 8.15693592322963E-09 2.95805576806128E-18 3.5862033396267E-11 4.20720987364613E-14 
                               1.15804189268448E-07 1.38208967640577E-15 3.23543124247536E-08 180              1.81914054607142E-06 -180             3.74282677766996E-06 2.74368133457267E-20 
                               1.48801497335474E-08 8.655018907253E-15 3.2127311828542E-06 180              0.000316102420792497 180              7.37391044850937E-08 -180             
                               1.18021529590057E-07 -180             1.95178375211759E-07 -2.83243419158748E-15 2.49386017777938E-09 4.27507103509002E-15 9.14465941678549E-08 -180             
                               1.05328306003041E-08 3.49112787328508E-20 1.77877313269159E-08 180              5.00264952212952E-09 -180             6.44023831686146E-12 6.74711179965176E-15 
                               1.01681845689802E-08 4.31107651360652E-15 3.93828560145778E-08 -9.9203705815718E-15 2.43896264936426E-08 2.4689049786756E-14 1.08870484035927E-07 -180             
                               1.09282143890619E-09 8.65462234353383E-15 7.14561734915833E-08 -180             7.37391044850937E-08 -180             0.000865117350377864 180              
! Gamma         59.5938736672771 0                75.9756898581012 0                59.5940768980462 0                102.809669509373 0                75.9741560467898 0                75.9743628506483 0                75.9745169143391 0                102.809942718295 0                102.809884461357 0                75.9742027343473 0                75.9742635385669 0                102.809686066093 0                59.5938195238384 0                75.974570226762  0                59.5937795113639 0                102.810312205211 0                
! Port Impedance         0                31.0421954157462 0                60.7126379742466 0                62.0321179776265 0                29.9960004130472 0                60.8833582002933 0                30.4437729403069 0                60.7869852713383 0                59.9491333496176 0                59.966484059268  0                60.8799842993342 0                30.4456936913571 0                29.9960225433638 0                62.0912710256279 0                60.8020019272222 0                31.0535291738989 0                59.9344965634021 
1                              0.00018493342777115 -180             3.36561932445425E-06 1.75461008315238E-22 1.57584254023923E-08 -2.85617496103294E-21 8.69495043296058E-07 -3.78294568751133E-20 
                               4.97641318538917E-08 -5.56938719716399E-21 2.41284291142254E-06 -180             1.00203174960056E-07 -180             2.78926257539729E-10 4.86620603057219E-21 
                               2.38757564305015E-07 -4.5586229526715E-15 5.31919664474544E-08 4.2252438979706E-20 2.0062883356576E-06 -1.01467016127284E-20 7.3760895695931E-07 -1.24911555831888E-14 
                               8.70172477690569E-09 -7.05063199840835E-15 7.93950280248035E-07 -180             1.40416166438181E-06 -180             1.28494385726098E-07 180              
                               3.36561932445426E-06 1.62471764302588E-21 0.000408193331403517 180              2.41112290520718E-08 180              6.18123301163059E-08 180              
                               1.40561764478446E-07 180              6.70782706158768E-07 3.53673469715739E-21 5.39838292685981E-08 4.60737177916935E-20 1.02143289496424E-10 -180             
                               2.12913449734653E-07 -180             1.25315298223918E-07 -180             7.01928334909401E-07 180              4.73468159702092E-08 180              
                               7.20862175237297E-09 180              5.38778659991942E-07 3.63194820794928E-20 7.68091346462156E-07 4.26218438672321E-20 2.02523167699804E-07 -4.90529826052005E-21 
                               1.57584254023924E-08 -4.32831301856574E-21 2.41112290520717E-08 180              0.000310460608247798 -180             7.31392014053959E-09 -4.58936432409799E-20 
                               4.56359183222455E-09 -180             3.50841538868865E-09 -8.31866858668987E-21 5.20696430242045E-10 -5.2213845104948E-20 8.85199360296511E-13 180              
                               1.07833167104774E-09 -180             2.63924566062006E-09 180              3.64613501878074E-09 -180             5.6331939649344E-09 -1.6592536793654E-14 
                               1.13657976282858E-10 180              7.13000599629334E-09 -3.04211416046843E-20 8.2919238736088E-09 -4.00664039462503E-20 2.51887715369426E-09 4.16349015947852E-21 
                               8.69495043296059E-07 -5.85916774511302E-20 6.18123301163057E-08 180              7.31392014053961E-09 -5.22558841049296E-20 0.000481864844092295 -180             