! AWR Design Environment (17415) Thu Oct 17 09:15:28 2024
! Document = 'TLine'
! nPorts: 2, nXvals: 201

# MHz S DB R 50
!Freq DBS11 AngS11 DBS21 AngS21 DBS12 AngS12 DBS22 AngS22 
10 -45.0952624156537 -89.1519419491076 -0.00620899528653234 -1.63925681388553 -0.00620899528653137 -1.6392568138855 -45.0952624156528 -89.1519419491102 
14.95 -41.6102998374044 -90.8444540909481 -0.00826868959441112 -2.45076154045696 -0.00826868959441063 -2.45076154045707 -41.6102998374065 -90.8444540909475 
19.9 -39.1317154120894 -92.183211865309 -0.0102521133236231 -3.26220839095278 -0.0102521133236256 -3.26220839095272 -39.1317154120886 -92.1832118653082 
24.85 -37.207497576415 -93.3550441786291 -0.0122098778368871 -4.0735848759955 -0.0122098778368837 -4.07358487599545 -37.2074975764145 -93.3550441786306 
29.8 -35.6350998411762 -94.4325590395497 -0.0141678413536272 -4.88487823580607 -0.0141678413536272 -4.88487823580613 -35.6350998411767 -94.43255903955 
34.75 -34.3061016449838 -95.4506319879408 -0.016141200233436 -5.69607576667909 -0.016141200233436 -5.69607576667908 -34.3061016449837 -95.450631987941 
39.7 -33.1556371777342 -96.4283681724419 -0.0181396722271922 -6.50716490484516 -0.0181396722271922 -6.50716490484516 -33.1556371777342 -96.4283681724419 
44.65 -32.1417984679386 -97.3772235663188 -0.0201698176819533 -7.31813325088696 -0.0201698176819533 -7.31813325088695 -32.1417984679385 -97.377223566319 
49.6 -31.2359361446189 -98.3045377929358 -0.0222362218189262 -8.12896857765049 -0.0222362218189233 -8.12896857765057 -31.2359361446194 -98.3045377929365 
54.55 -30.4175964105473 -99.2152577780477 -0.0243421548613419 -8.9396588337971 -0.0243421548613448 -8.93965883379706 -30.417596410547 -99.215257778047 
59.5 -29.6716654904551 -100.112854170845 -0.0264899670923303 -9.75019214670331 -0.0264899670923313 -9.7501921467033 -29.6716654904551 -100.112854170844 
64.45 -28.9866586957235 -100.999842354229 -0.0286813385214369 -10.5605568258281 -0.0286813385214379 -10.5605568258282 -28.9866586957237 -100.999842354228 
69.4 -28.3536441757883 -101.878095044142 -0.0309174437891482 -11.3707413667972 -0.0309174437891478 -11.3707413667972 -28.3536441757882 -101.878095044142 
74.35 -27.7655382390571 -102.749038339782 -0.0331990651537033 -12.1807344561663 -0.0331990651537028 -12.1807344561663 -27.7655382390572 -102.749038339782 
79.3 -27.2166281994987 -103.613779327469 -0.0355266723514358 -12.9905249767521 -0.0355266723514358 -12.9905249767521 -27.2166281994987 -103.613779327469 
84.25 -26.7022399165705 -104.473191798227 -0.0379004805812124 -13.8001020133952 -0.0379004805812124 -13.8001020133952 -26.7022399165705 -104.473191798228 
89.2 -26.2185003738652 -105.327975415714 -0.0403204936126105 -14.6094548590379 -0.0403204936126095 -14.6094548590379 -26.2185003738653 -105.327975415714 
94.15 -25.7621644507583 -106.178697536582 -0.0427865365185193 -15.4185730210173 -0.0427865365185222 -15.4185730210173 -25.7621644507583 -106.178697536582 
99.1 -25.3304861241117 -107.025823391182 -0.0452982810099401 -16.2274462274848 -0.0452982810099425 -16.2274462274848 -25.3304861241117 -107.025823391182 
104.05 -24.9211210903222 -107.869738269704 -0.0478552653930253 -17.0360644338866 -0.0478552653930258 -17.0360644338866 -24.9211210903221 -107.869738269704 
109 -24.5320520362659 -108.710764102136 -0.0504569105492697 -17.8444178294476 -0.0504569105492682 -17.8444178294476 -24.5320520362659 -108.710764102136 
113.95 -24.1615305178926 -109.549172033239 -0.0531025329296984 -18.6524968436092 -0.0531025329296989 -18.6524968436092 -24.1615305178926 -109.549172033239 
118.9 -23.8080312054371 -110.385192088175 -0.0557913552762182 -19.4602921523853 -0.0557913552762196 -19.4602921523853 -23.8080312054372 -110.385192088175 
123.85 -23.4702154663214 -111.219020692537 -0.0585225155915977 -20.2677946846032 -0.0585225155915992 -20.2677946846032 -23.4702154663214 -111.219020692537 
128.8 -23.146902088481 -112.050826588113 -0.0612950747448859 -21.074995628001 -0.0612950747448873 -21.074995628001 -23.146902088481 -112.050826588113 
133.75 -22.8370435273739 -112.880755533997 -0.064108023002849 -21.8818864351613 -0.0641080230028485 -21.8818864351613 -22.8370435273739 -112.880755533998 
138.7 -22.5397064715107 -113.708934077388 -0.0669602857083159 -22.6884588292605 -0.066960285708315 -22.6884588292605 -22.5397064715107 -113.708934077388 
143.65 -22.2540558173856 -114.535472604256 -0.0698507282751327 -23.4947048096176 -0.0698507282751337 -23.4947048096176 -22.2540558173856 -114.535472604256 
148.6 -21.9793413604171 -115.360467827101 -0.0727781606313772 -24.3006166570282 -0.0727781606313762 -24.3006166570282 -21.9793413604171 -115.360467827101 
153.55 -21.7148866676494 -116.184004828677 -0.0757413412138497 -25.1061869388733 -0.0757413412138516 -25.1061869388733 -21.7148866676495 -116.184004828677 
158.5 -21.4600797166931 -117.006158752483 -0.0787389805951157 -25.9114085139917 -0.0787389805951172 -25.9114085139917 -21.4600797166931 -117.006158752483 
163.45 -21.2143649748695 -117.826996210058 -0.0817697448076968 -26.7162745373073 -0.0817697448076963 -26.7162745373073 -21.2143649748695 -117.826996210058 
168.4 -20.977236660656 -118.646576459527 -0.0848322584170559 -27.5207784642048 -0.0848322584170589 -27.5207784642048 -20.977236660656 -118.646576459527 
173.35 -20.7482329818466 -119.464952398114 -0.0879251073849553 -28.3249140546467 -0.0879251073849563 -28.3249140546467 -20.7482329818467 -119.464952398114 
178.3 -20.5269311853797 -120.282171402383 -0.0910468417568239 -29.1286753770274 -0.0910468417568244 -29.1286753770274 -20.5269311853797 -120.282171402383 
183.25 -20.3129432854359 -121.098276043067 -0.0941959782004642 -29.9320568117593 -0.0941959782004642 -29.9320568117593 -20.3129432854359 -121.098276043067 
188.2 -20.1059123613041 -121.913304696024 -0.0973710024184134 -30.7350530545883 -0.0973710024184134 -30.7350530545883 -20.1059123613041 -121.913304696024 
193.15 -19.9055093362435 -122.727292066687 -0.100570371452239 -31.5376591196351 -0.100570371452241 -31.5376591196351 -19.9055093362435 -122.727292066687 
198.1 -19.7114301642931 -123.540269642083 -0.103792515893782 -32.3398703421614 -0.103792515893782 -32.3398703421614 -19.7114301642931 -123.540269642083 
203.05 -19.5233933646096 -124.352266081949 -0.107035842015721 -33.141682381058 -0.107035842015721 -33.141682381058 -19.5233933646096 -124.352266081949 
208 -19.3411378531012 -125.163307558348 -0.110298733831677 -33.9430912210564 -0.110298733831677 -33.9430912210564 -19.3411378531011 -125.163307558348 
212.95 -19.1644210293981 -125.973418051586 -0.113579555094271 -34.7440931746604 -0.11357955509427 -34.7440931746604 -19.1644210293981 -125.973418051586 
217.9 -18.9930170839515 -126.782619608869 -0.116876651238153 -35.5446848838011 -0.116876651238153 -35.5446848838011 -18.9930170839516 -126.782619608869 
222.85 -18.8267154955898 -127.590932571069 -0.120188351273716 -36.3448633212137 -0.120188351273718 -36.3448633212137 -18.8267154955898 -127.590932571069 
227.8 -18.6653196944256 -128.398375772084 -0.123512969636322 -37.1446257915382 -0.123512969636322 -37.1446257915382 -18.6653196944256 -128.398375772084 
232.75 -18.5086458687854 -129.204966714567 -0.12684880799495 -37.9439699321457 -0.12684880799495 -37.9439699321457 -18.5086458687854 -129.204966714567 
237.7 -18.3565218979769 -130.010721725196 -0.130194157023491 -38.7428937136906 -0.130194157023492 -38.7428937136906 -18.3565218979769 -130.010721725196 
242.65 -18.2087863953322 -130.81565609218 -0.133547298137376 -39.541395440393 -0.133547298137375 -39.541395440393 -18.2087863953322 -130.81565609218 
247.6 -18.0652878481657 -131.619784187282 -0.136906505197712 -40.3394737500528 -0.136906505197711 -40.3394737500528 -18.0652878481657 -131.619784187282 
252.55 -17.9258838431396 -132.423119574305 -0.140270046184662 -41.1371276137976 -0.140270046184663 -41.1371276137976 -17.9258838431396 -132.423119574305 
257.5 -17.7904403670894 -133.225675105715 -0.143636184841511 -41.9343563355691 -0.14363618484151 -41.9343563355691 -17.7904403670894 -133.225675105715 
262.45 -17.6588311746913 -134.027463008822 -0.147003182290551 -42.7311595513499 -0.147003182290552 -42.7311595513499 -17.6588311746913 -134.027463008822 
267.4 -17.5309372154805 -134.828494962763 -0.15036929862167 -43.5275372281353 -0.150369298621671 -43.5275372281353 -17.5309372154805 -134.828494962763 
272.35 -17.4066461136901 -135.628782167326 -0.153732794454334 -44.3234896626534 -0.153732794454335 -44.3234896626535 -17.4066461136901 -135.628782167326 
277.3 -17.2858516952051 -136.428335404573 -0.157091932473484 -45.1190174798386 -0.157091932473485 -45.1190174798386 -17.2858516952051 -136.428335404573 
282.25 -17.1684535566328 -137.227165094022 -0.160444978939714 -45.9141216310596 -0.160444978939717 -45.9141216310596 -17.1684535566329 -137.227165094022 
287.2 -17.0543566720982 -138.025281342112 -0.163790205174001 -46.7088033921118 -0.163790205174002 -46.7088033921118 -17.0543566720982 -138.025281342112 
292.15 -16.9434710339007 -138.822693986552 -0.167125889017133 -47.5030643609726 -0.167125889017133 -47.5030643609726 -16.9434710339008 -138.822693986552 
297.1 -16.835711323621 -139.619412636082 -0.170450316263939 -48.2969064553288 -0.17045031626394 -48.2969064553288 -16.835711323621 -139.619412636082 
302.05 -16.7309966106632 -140.415446706116 -0.173761782072281 -49.0903319098789 -0.17376178207228 -49.0903319098789 -16.7309966106632 -140.415446706116 
307 -16.6292500755593 -141.210805450682 -0.177058592346843 -49.8833432734155 -0.177058592346841 -49.8833432734155 -16.6292500755593 -141.210805450682 
311.95 -16.5303987556645 -142.005497991016 -0.180339065097535 -50.6759434056933 -0.180339065097534 -50.6759434056933 -16.5303987556645 -142.005497991016 
316.9 -16.434373311131 -142.799533341136 -0.183601531772523 -51.4681354740872 -0.183601531772525 -51.4681354740872 -16.434373311131 -142.799533341136 
321.85 -16.3411078092796 -143.592920430669 -0.186844338565597 -52.2599229500465 -0.186844338565596 -52.2599229500465 -16.3411078092796 -143.592920430669 
326.8 -16.250539525688 -144.385668125208 -0.190065847697828 -53.0513096053499 -0.190065847697828 -53.0513096053499 -16.250539525688 -144.385668125207 
331.75 -16.1626087604933 -145.177785244382 -0.193264438673287 -53.8422995081667 -0.193264438673287 -53.8422995081666 -16.1626087604933 -145.177785244382 
336.7 -16.0772586685606 -145.969280577887 -0.196438509508642 -54.6328970189294 -0.196438509508642 -54.6328970189295 -16.0772586685606 -145.969280577887 
341.65 -15.9944351023096 -146.760162899619 -0.199586477936473 -55.4231067860245 -0.199586477936471 -55.4231067860245 -15.9944351023096 -146.760162899619 
346.6 -15.9140864661109 -147.550440980083 -0.202706782582069 -56.2129337413036 -0.202706782582069 -56.2129337413037 -15.9140864661109 -147.550440980083 
351.55 -15.8361635812743 -148.340123597223 -0.205797884113576 -57.0023830954249 -0.205797884113577 -57.0023830954249 -15.8361635812743 -148.340123597222 
356.5 -15.7606195607453 -149.129219545801 -0.208858266365261 -57.7914603330258 -0.208858266365262 -57.7914603330258 -15.7606195607453 -149.129219545801 
361.45 -15.6874096927133 -149.917737645435 -0.211886437433751 -58.5801712077357 -0.211886437433752 -58.5801712077357 -15.6874096927133 -149.917737645435 
366.4 -15.6164913324106 -150.705686747403 -0.214880930747062 -59.3685217370315 -0.214880930747062 -59.3685217370315 -15.6164913324106 -150.705686747403 
371.35 -15.547823801449 -151.493075740313 -0.217840306106265 -60.156518196944 -0.217840306106265 -60.156518196944 -15.547823801449 -151.493075740313 
376.3 -15.4813682941026 -152.279913554708 -0.220763150699639 -60.944167116618 -0.22076315069964 -60.944167116618 -15.4813682941026 -152.279913554708 
381.25 -15.417087789999 -153.066209166709 -0.223648080089165 -61.7314752727322 -0.223648080089166 -61.7314752727322 -15.417087789999 -153.066209166709 
386.2 -15.3549469727314 -153.851971600734 -0.226493739169254 -62.5184496837855 -0.226493739169255 -62.5184496837855 -15.3549469727314 -153.851971600734 
391.15 -15.2949121539462 -154.63720993138 -0.229298803097577 -63.3050976042526 -0.229298803097575 -63.3050976042526 -15.2949121539462 -154.63720993138 
396.1 -15.2369512025024 -155.421933284522 -0.232061978197891 -64.0914265186157 -0.232061978197892 -64.0914265186157 -15.2369512025024 -155.421933284522 
401.05 -15.1810334783329 -156.206150837661 -0.234782002834806 -64.8774441352765 -0.234782002834806 -64.8774441352765 -15.1810334783329 -156.206150837661 
406 -15.1271297706713 -156.989871819602 -0.237457648260363 -65.6631583803544 -0.237457648260364 -65.6631583803544 -15.1271297706713 -156.989871819602 
410.95 -15.0752122403371 -157.773105509472 -0.240087719432401 -66.4485773913743 -0.2400877194324 -66.4485773913743 -15.0752122403371 -157.773105509472 
415.9 -15.0252543657961 -158.555861235143 -0.242671055804625 -67.2337095108507 -0.242671055804625 -67.2337095108507 -15.0252543657961 -158.555861235143 
420.85 -14.9772308927412 -159.338148371074 -0.245206532088357 -68.0185632797715 -0.245206532088357 -68.0185632797715 -14.9772308927412 -159.338148371074 
425.8 -14.9311177869553 -160.119976335625 -0.247693058985931 -68.8031474309864 -0.247693058985931 -68.8031474309864 -14.9311177869553 -160.119976335625 
430.75 -14.8868921902422 -160.901354587854 -0.250129583895687 -69.5874708825059 -0.250129583895687 -69.5874708825059 -14.8868921902422 -160.901354587854 
435.7 -14.8445323792262 -161.682292623842 -0.252515091588574 -70.3715427307128 -0.252515091588573 -70.3715427307128 -14.8445323792262 -161.682292623842 
440.65 -14.8040177268399 -162.462799972552 -0.254848604856347 -71.1553722434934 -0.254848604856347 -71.1553722434934 -14.8040177268399 -162.462799972552 
445.6 -14.765328666332 -163.242886191254 -0.257129185131384 -71.9389688532914 -0.257129185131383 -71.9389688532914 -14.765328666332 -163.242886191254 
450.55 -14.7284466576437 -164.022560860544 -0.259355933078085 -72.7223421500883 -0.259355933078085 -72.7223421500883 -14.7284466576437 -164.022560860544 
455.5 -14.6933541560116 -164.801833578955 -0.261527989155913 -73.5055018743161 -0.261527989155914 -73.5055018743161 -14.6933541560116 -164.801833578955 
460.45 -14.6600345826697 -165.580713957194 -0.263644534154103 -74.288457909705 -0.263644534154104 -74.288457909705 -14.6600345826697 -165.580713957194 
465.4 -14.6284722975307 -166.35921161201 -0.265704789698028 -75.0712202760712 -0.265704789698029 -75.0712202760712 -14.6284722975307 -166.35921161201 
470.35 -14.5986525737382 -167.13733615971 -0.267708018727324 -75.8537991220478 -0.267708018727325 -75.8537991220478 -14.5986525737382 -167.13733615971 
475.3 -14.5705615739911 -167.915097209338 -0.269653525945734 -76.6362047177632 -0.269653525945735 -76.6362047177632 -14.5705615739911 -167.915097209338 
480.25 -14.5441863285467 -168.692504355509 -0.271540658242787 -77.4184474474719 -0.271540658242787 -77.4184474474719 -14.5441863285467 -168.692504355509 
485.2 -14.5195147148203 -169.469567170939 -0.273368805087321 -78.200537802139 -0.27336880508732 -78.200537802139 -14.5195147148203 -169.469567170939 
490.15 -14.4965354385047 -170.246295198642 -0.275137398892903 -78.9824863719844 -0.275137398892903 -78.9824863719844 -14.4965354385047 -170.246295198642 
495.1 -14.4752380161371 -171.022697943829 -0.276845915355217 -79.7643038389893 -0.276845915355215 -79.7643038389893 -14.4752380161371 -171.022697943829 
500.05 -14.4556127590533 -171.798784865498 -0.278493873761436 -80.5460009693691 -0.278493873761437 -80.5460009693691 -14.4556127590533 -171.798784865498 
505 -14.4376507586673 -172.574565367725 -0.280080837271683 -81.3275886060151 -0.280080837271684 -81.3275886060151 -14.4376507586673 -172.574565367725 
509.95 -14.4213438730255 -173.350048790652 -0.281606413172598 -82.1090776609095 -0.281606413172596 -82.1090776609095 -14.4213438730255 -173.350048790652 
514.9 -14.4066847145874 -174.125244401185 -0.283070253103084 -82.8904791075177 -0.283070253103082 -82.8904791075177 -14.4066847145874 -174.125244401185 
519.85 -14.3936666391901 -174.900161383391 -0.284472053252276 -83.6718039731591 -0.284472053252276 -83.6718039731591 -14.3936666391901 -174.900161383391 
524.8 -14.3822837361567 -175.674808828596 -0.285811554529806 -84.4530633313618 -0.285811554529805 -84.4530633313618 -14.3822837361567 -175.674808828596 
529.75 -14.3725308195165 -176.449195725189 -0.287088542708401 -85.2342682942037 -0.2870885427084 -85.2342682942037 -14.3725308195165 -176.449195725189 
534.7 -14.3644034203048 -177.223330948118 -0.288302848538879 -86.015430004643 -0.28830284853888 -86.015430004643 -14.3644034203048 -177.223330948118 
539.65 -14.3578977799186 -177.997223248075 -0.289454347837589 -86.7965596288415 -0.289454347837589 -86.7965596288415 -14.3578977799186 -177.997223248075 
544.6 -14.3530108445026 -178.770881240381 -0.290542961546342 -87.577668348485 -0.290542961546344 -87.577668348485 -14.3530108445026 -178.770881240381 
549.55 -14.3497402603494 -179.544313393535 -0.291568655764908 -88.3587673531009 -0.291568655764909 -88.3587673531009 -14.3497402603494 -179.544313393535 
554.5 -14.3480843702975 179.682471982552 -0.292531441756084 -89.1398678323803 -0.292531441756085 -89.1398678323803 -14.3480843702975 179.682471982552 
559.45 -14.3480422111148 178.909466748674 -0.293431375923405 -89.920980968505 -0.293431375923407 -89.920980968505 -14.3480422111148 178.909466748674 
564.4 -14.3496135118596 178.136662948781 -0.294268559761555 -90.7021179284821 -0.294268559761557 -90.7021179284821 -14.3496135118596 178.136662948781 
569.35 -14.3527986932143 177.364052822808 -0.295043139779505 -91.4832898564924 -0.295043139779505 -91.4832898564924 -14.3527986932143 177.364052822808 
574.3 -14.3575988677887 176.591628819864 -0.295755307396378 -92.264507866252 -0.295755307396379 -92.264507866252 -14.3575988677887 176.591628819864 
579.25 -14.364015841395 175.819383611825 -0.296405298810189 -93.0457830333932 -0.296405298810189 -93.0457830333932 -14.364015841395 175.819383611825 
584.2 -14.3720521152994 175.047310107331 -0.296993394839371 -93.8271263878663 -0.29699339483937 -93.8271263878663 -14.3720521152994 175.047310107331 
589.15 -14.3817108894573 174.275401466207 -0.297519920737233 -94.6085489063658 -0.297519920737233 -94.6085489063658 -14.3817108894573 174.275401466207 
594.1 -14.3929960667437 173.503651114344 -0.297985245979304 -95.3900615047844 -0.297985245979306 -95.3900615047844 -14.3929960667437 173.503651114344 
599.05 -14.4059122581944 172.732052759043 -0.298389784023667 -96.1716750306981 -0.298389784023668 -96.1716750306981 -14.4059122581944 172.732052759043 
604 -14.4204647892739 171.96060040487 -0.298733992044266 -96.953400255885 -0.298733992044266 -96.953400255885 -14.4204647892739 171.96060040487 
608.95 -14.4366597071949 171.189288370027 -0.299018370637264 -97.7352478688825 -0.299018370637263 -97.7352478688825 -14.4366597071949 171.189288370027 
613.9 -14.4545037893113 170.418111303293 -0.299243463500479 -98.5172284675839 -0.299243463500479 -98.5172284675839 -14.4545037893113 170.418111303293 
618.85 -14.4740045526174 169.647064201551 -0.299409857085916 -99.2993525518807 -0.299409857085917 -99.2993525518807 -14.4740045526175 169.647064201551 
623.8 -14.495170264384 168.876142427948 -0.299518180225474 -100.081630516351 -0.299518180225473 -100.081630516351 -14.495170264384 168.876142427948 
628.75 -14.5180099539703 168.105341730733 -0.299569103729866 -100.864072643002 -0.299569103729867 -100.864072643002 -14.5180099539703 168.105341730733 
633.7 -14.5425334258544 167.3346582628 -0.299563339960755 -101.646689094061 -0.299563339960754 -101.646689094061 -14.5425334258544 167.3346582628 
638.65 -14.5687512739267 166.564088602002 -0.299501642376249 -102.429489904831 -0.299501642376247 -102.429489904831 -14.5687512739267 166.564088602002 
643.6 -14.5966748971006 165.793629772287 -0.29938480504971 -103.212484976607 -0.299384805049711 -103.212484976607 -14.5966748971006 165.793629772287 
648.55 -14.6263165162957 165.023279265704 -0.299213662162036 -103.995684069653 -0.299213662162037 -103.995684069653 -14.6263165162957 165.023279265704 
653.5 -14.6576891928577 164.253035065346 -0.298989087467411 -104.779096796252 -0.298989087467411 -104.779096796252 -14.6576891928577 164.253035065346 
658.45 -14.6908068484823 163.482895669315 -0.298711993732648 -105.562732613833 -0.298711993732648 -105.562732613833 -14.6908068484823 163.482895669315 
663.4 -14.7256842867191 162.712860115755 -0.298383332150194 -106.346600818163 -0.298383332150194 -106.346600818163 -14.7256842867191 162.712860115755 
668.35 -14.7623372161383 161.942928009064 -0.298004091724872 -107.130710536636 -0.298004091724873 -107.130710536636 -14.7623372161383 161.942928009064 
673.3 -14.800782275249 161.173099547357 -0.297575298634526 -107.91507072163 -0.297575298634528 -107.91507072163 -14.800782275249 161.173099547357 
678.25 -14.8410370592669 160.403375551292 -0.297098015564591 -108.699690143969 -0.297098015564593 -108.699690143969 -14.8410370592669 160.403375551292 
683.2 -14.8831201488392 159.633757494353 -0.296573341016818 -109.484577386465 -0.296573341016817 -109.484577386465 -14.8831201488392 159.633757494353 
688.15 -14.9270511408421 158.864247534723 -0.296002408592193 -110.269740837565 -0.296002408592193 -110.269740837565 -14.9270511408421 158.864247534723 
693.1 -14.9728506813769 158.09484854887 -0.295386386248299 -111.055188685097 -0.295386386248299 -111.055188685097 -14.9728506813769 158.09484854887 
698.05 -15.0205405011035 157.325564166989 -0.294726475531207 -111.840928910123 -0.294726475531207 -111.840928910123 -15.0205405011035 157.325564166989 
703 -15.0701434530608 156.556398810455 -0.294023910782144 -112.626969280903 -0.294023910782145 -112.626969280903 -15.0701434530608 156.556398810455 
707.95 -15.1216835531372 155.787357731472 -0.293279958319086 -113.413317346967 -0.293279958319085 -113.413317346967 -15.1216835531372 155.787357731472 
712.9 -15.1751860233687 155.018447055084 -0.292495915593541 -114.19998043332 -0.292495915593543 -114.19998043332 -15.1751860233687 155.018447055084 
717.85 -15.2306773382605 154.249673823785 -0.29167311032272 -114.986965634759 -0.29167311032272 -114.986965634759 -15.2306773382605 154.249673823786 
722.8 -15.2881852743406 153.481046044935 -0.290812899597384 -115.77427981032 -0.290812899597386 -115.77427981032 -15.2881852743406 153.481046044934 
727.75 -15.3477389631779 152.712572741245 -0.28991666896563 -116.561929577868 -0.28991666896563 -116.561929577868 -15.3477389631779 152.712572741245 
732.7 -15.4093689481169 151.94426400462 -0.288985831492896 -117.349921308811 -0.288985831492895 -117.349921308811 -15.4093689481169 151.94426400462 
737.65 -15.473107245002 151.176131053652 -0.288021826798565 -118.138261122967 -0.288021826798565 -118.138261122967 -15.473107245002 151.176131053652 
742.6 -15.5389874071943 150.408186295121 -0.287026120069445 -118.926954883579 -0.287026120069447 -118.926954883579 -15.5389874071944 150.408186295121 
747.55 -15.6070445952081 149.640443389874 -0.286000201050545 -119.716008192471 -0.286000201050547 -119.716008192471 -15.6070445952081 149.640443389874 
752.5 -15.677315651328 148.872917323512 -0.284945583013515 -120.505426385376 -0.284945583013515 -120.505426385376 -15.677315651328 148.872917323512 
757.45 -15.7498391796016 148.105624482349 -0.283863801703196 -121.295214527418 -0.283863801703197 -121.295214527418 -15.7498391796016 148.105624482349 
762.4 -15.8246556316402 147.338582735158 -0.282756414262716 -122.085377408761 -0.282756414262717 -122.085377408761 -15.8246556316402 147.338582735158 
767.35 -15.9018073987045 146.571811521298 -0.281624998137592 -122.875919540436 -0.281624998137593 -122.875919540436 -15.9018073987045 146.571811521298 
772.3 -15.9813389105966 145.805331945855 -0.280471149959399 -123.666845150336 -0.2804711499594 -123.666845150335 -15.9813389105966 145.805331945855 
777.25 -16.0632967419361 145.039166882518 -0.279296484409475 -124.458158179399 -0.279296484409475 -124.458158179399 -16.0632967419361 145.039166882518 
782.2 -16.1477297264541 144.273341085012 -0.278102633063294 -125.249862277981 -0.278102633063296 -125.249862277981 -16.1477297264541 144.273341085012 
787.15 -16.2346890800053 143.507881307974 -0.276891243216042 -126.041960802411 -0.276891243216042 -126.041960802411 -16.2346890800053 143.507881307974 
792.1 -16.3242285330727 142.742816438295 -0.275663976690073 -126.834456811747 -0.275663976690073 -126.834456811747 -16.3242285330727 142.742816438295 
797.05 -16.416404473622 141.97817763806 -0.2744225086249 -127.62735306474 -0.274422508624901 -127.62735306474 -16.416404473622 141.97817763806 
802 -16.5112761012522 141.213998500375 -0.273168526250375 -128.420652016991 -0.273168526250375 -128.420652016991 -16.5112761012522 141.213998500375 
806.95 -16.608905593699 140.45031521951 -0.271903727643835 -129.214355818328 -0.271903727643834 -129.214355818328 -16.608905593699 140.45031521951 
811.9 -16.7093582868577 139.687166777005 -0.27062982047194 -130.008466310395 -0.270629820471942 -130.008466310395 -16.7093582868577 139.687166777005 
816.85 -16.8127028696308 138.924595145563 -0.269348520718017 -130.802985024459 -0.269348520718016 -130.802985024459 -16.8127028696308 138.924595145563 
821.8 -16.91901159505 138.16264551283 -0.268061551395706 -131.597913179448 -0.268061551395707 -131.597913179448 -16.91901159505 138.16264551283 
826.75 -17.028360509297 137.401366527428 -0.266770641249801 -132.393251680203 -0.266770641249801 -132.393251680203 -17.0283605092969 137.401366527428 
831.7 -17.1408297004332 136.640810569937 -0.265477523445156 -133.189001115981 -0.265477523445156 -133.189001115981 -17.1408297004332 136.640810569937 
836.65 -17.2565035688756 135.881034051898 -0.264183934244575 -133.985161759177 -0.264183934244572 -133.985161759177 -17.2565035688756 135.881034051898 
841.6 -17.375471121896 135.122097746353 -0.262891611676678 -134.781733564298 -0.262891611676677 -134.781733564298 -17.375471121896 135.122097746353 
846.55 -17.4978262947148 134.364067153934 -0.261602294194693 -135.578716167175 -0.261602294194692 -135.578716167175 -17.4978262947148 134.364067153934 
851.5 -17.6236683010791 133.607012909123 -0.260317719327228 -136.376108884424 -0.260317719327225 -136.376108884424 -17.623668301079 133.607012909123 
856.45 -17.7531020165949 132.851011231979 -0.259039622322037 -137.17391071316 -0.259039622322037 -137.17391071316 -17.7531020165949 132.851011231979 
861.4 -17.8862383985104 132.096144431458 -0.257769734783917 -137.97212033096 -0.257769734783916 -137.97212033096 -17.8862383985104 132.096144431458 
866.35 -18.0231949461439 131.342501467395 -0.256509783307828 -138.77073609609 -0.25650978330783 -138.77073609609 -18.0231949461439 131.342501467395 
871.3 -18.1640962067266 130.59017857935 -0.255261488108338 -139.569756047983 -0.25526148810834 -139.569756047983 -18.1640962067266 130.59017857935 
876.25 -18.3090743320928 129.839279991836 -0.254026561646641 -140.369177907987 -0.254026561646642 -140.369177907987 -18.3090743320928 129.839279991836 
881.2 -18.458269692424 129.089918707059 -0.252806707256306 -141.168999080373 -0.252806707256308 -141.168999080373 -18.458269692424 129.089918707059 
886.15 -18.6118315541585 128.342217398125 -0.251603617768955 -141.969216653612 -0.251603617768956 -141.969216653612 -18.6118315541585 128.342217398125 
891.1 -18.769918830225 127.596309417977 -0.250418974141193 -142.769827401916 -0.250418974141194 -142.769827401916 -18.769918830225 127.596309417977 
896.05 -18.9327009120032 126.852339941946 -0.249254444083988 -143.570827787056 -0.249254444083989 -143.570827787056 -18.9327009120032 126.852339941946 
901 -19.1003585938619 126.110467265097 -0.248111680695843 -144.372213960442 -0.248111680695846 -144.372213960442 -19.1003585938619 126.110467265097 
905.95 -19.2730851028455 125.370864279403 -0.24699232110108 -145.173981765485 -0.246992321101081 -145.173981765485 -19.2730851028455 125.370864279402 
910.9 -19.4510872481135 124.63372016055 -0.2458979850945 -145.976126740218 -0.245897985094502 -145.976126740218 -19.4510872481135 124.63372016055 
915.85 -19.6345867071513 123.89924229992 -0.244830273793877 -146.778644120205 -0.244830273793877 -146.778644120205 -19.6345867071513 123.89924229992 
920.8 -19.8238214686609 123.167658524357 -0.243790768301564 -147.581528841711 -0.243790768301565 -147.581528841711 -19.8238214686609 123.167658524357 
925.75 -20.0190474554901 122.43921965497 -0.242781028376624 -148.384775545148 -0.242781028376624 -148.384775545148 -20.0190474554901 122.43921965497 
930.7 -20.2205403551203 121.714202466927 -0.241802591118878 -149.188378578797 -0.241802591118877 -149.188378578797 -20.2205403551203 121.714202466927 
935.65 -20.4285976902505 120.992913125442 -0.240856969666242 -149.992332002788 -0.240856969666242 -149.992332002788 -20.4285976902505 120.992913125442 
940.6 -20.6435411681099 120.275691189693 -0.239945651906802 -150.796629593368 -0.239945651906801 -150.796629593368 -20.6435411681099 120.275691189693 
945.55 -20.8657193545612 119.562914297164 -0.239070099206971 -151.601264847415 -0.239070099206969 -151.601264847415 -20.8657193545612 119.562914297164 
950.5 -21.0955107281537 118.855003667024 -0.238231745157192 -152.406230987236 -0.238231745157191 -152.406230987236 -21.0955107281536 118.855003667024 
955.45 -21.3333271804946 118.152430594406 -0.237431994336578 -153.211520965614 -0.237431994336578 -153.211520965614 -21.3333271804946 118.152430594406 
960.4 -21.5796180431828 117.455724149801 -0.236672221097871 -154.017127471124 -0.236672221097872 -154.017127471124 -21.5796180431829 117.455724149801 
965.35 -21.8348747388229 116.765480352355 -0.235953768374142 -154.823042933695 -0.235953768374141 -154.823042933695 -21.8348747388229 116.765480352355 
970.3 -22.0996361752864 116.082373156485 -0.235277946508616 -155.629259530442 -0.235277946508614 -155.629259530442 -22.0996361752864 116.082373156485 
975.25 -22.3744950296561 115.40716768344 -0.234646032109009 -156.435769191724 -0.234646032109007 -156.435769191724 -22.374495029656 115.40716768344 