! TOUCHSTONE file generated by CST MICROWAVE STUDIO
! Date and time: Mon Jul 31 14:49:02 2017
! Project name: NCC-1701.cst
! Parameters = {FW_Rcenter=7864; FW_Zcenter=610.6; FW_height=1100; FW_incl_angle=2.98905; FW_incl_angle_rad=0.0521687; FW_thickness=43.026; LCFS_Rcenter=8199;  toroidal_opening_angle=0.150864; vertical_septa_correction=9.52041; vertical_septa_correction_out=9.52041; vertical_septum_maximum_process=175.71; vertical_septum_recess_strap=20; vertical_septum_recess_top_septum=55.7648; x_in=0.0256129; x_mid=395; x_out=0.0707403; y_mid=9.52041}
! Header version: 2015
! Port assignment regex: !\s*Touchstone port\s*([0-9]+)\s*=\s*CST MWS port\s*([0-9]+)\s*\(\"(.*)\"\)(\s*mode\s*([0-9]+))?.*
! Touchstone port assignment:
! Touchstone port 1 = CST MWS port 1 ("")
! Touchstone port 2 = CST MWS port 2 ("")
! Touchstone port 3 = CST MWS port 3 ("")
! Touchstone port 4 = CST MWS port 4 ("")
! Touchstone port 5 = CST MWS port 5 ("")
! Touchstone port 6 = CST MWS port 6 ("")
# MHz S MA R 50
0                              1             180     4.49233e-007             180     3.07403e-007             180     1.77519e-007             180
                    1.98312e-007             180     1.15785e-007             180
                    6.20274e-007    3.49996e-006                1             180     1.96228e-007    3.49996e-006     2.12696e-007             180
                    3.82229e-009             180     1.74057e-007    3.49996e-006
                    9.73408e-007    3.49996e-006     1.91089e-007    3.49996e-006         0.999999             180     1.46785e-007             180
                    1.67007e-007    3.49996e-006      5.0408e-007    3.49996e-006
                    1.54916e-007    3.49997e-006     2.13944e-007             180     1.47181e-007             180                1             180
                    8.56782e-008             180     5.00911e-008             180
                    3.37682e-007    3.49996e-006     9.27795e-009    3.50001e-006     1.68059e-007    3.49996e-006     9.68434e-008             180
                               1             180      6.7933e-008    3.49996e-006
                    4.80526e-007    3.49996e-006     1.74423e-007    3.49996e-006     5.05688e-007    3.49996e-006     5.10923e-008             180
                    8.49384e-008    3.49997e-006                1             180
0.06                           1          179.93     5.94318e-005        -90.4667     3.66907e-006        -94.4174     2.43912e-005         90.3094
                    3.04923e-006         93.3506     1.51276e-006        -94.0819
                    5.98706e-005        -89.5361                1         179.928     6.29641e-005        -89.9087     3.05827e-006          93.583
                    2.22985e-005         89.9405     2.16556e-006         85.7952
                    4.29894e-006        -78.2565     6.29647e-005        -89.9135         0.999999         179.934     1.48782e-006        -95.2379
                    2.14227e-006         85.9213     2.81482e-005         89.0011
                    2.42821e-005         89.5968     3.05837e-006         93.6064     1.48787e-006        -95.2535                1         179.929
                     6.0762e-005        -90.1445     4.02934e-006        -90.6924
                    2.85012e-006         83.8006     2.22981e-005          89.907      2.1423e-006         85.8935     6.07616e-005         -90.155
                               1         179.927     6.47444e-005         -90.016
                    1.81096e-006         -76.212     2.16555e-006         85.7859     2.81486e-005         88.9976     4.02928e-006        -90.7064
                    6.47449e-005         -90.001                1         179.933
0.12                           1          179.86      0.000118893        -90.2871     7.34157e-006         -91.664     4.87686e-005         89.9966
                     6.0749e-006         91.1429     3.02709e-006        -91.6135
                     0.000119682        -89.9567                1         179.856       0.00012591        -90.0835     6.09038e-006         91.2225
                    4.45982e-005          89.866     4.33535e-006         88.4671
                    8.35623e-006        -85.8955      0.000125911        -90.0861         0.999999         179.867     2.97551e-006        -92.0287
                     4.2889e-006         88.5122      5.6329e-005          89.533
                    4.85777e-005         89.7382     6.09046e-006         91.2344     2.97554e-006        -92.0372                1         179.858
                      0.00012153        -90.1685     8.06153e-006        -90.3219
                    5.70047e-006          87.742     4.45976e-005         89.8496     4.28885e-006         88.4987       0.00012153        -90.1737
                               1         179.855      0.000129483        -90.1215
                    3.48895e-006        -85.1667      4.3353e-006          88.463     5.63297e-005          89.531     8.06142e-006        -90.3285
                     0.000129483        -90.1141                1         179.865
0.18                           1          179.79      0.000178411        -90.2582     1.10594e-005        -90.5869     7.31231e-005         89.8294
                    9.07748e-006         90.2294     4.55769e-006        -90.6748
                     0.000179396        -90.1687                1         179.785      0.000188824        -90.1957     9.09755e-006          90.246
                    6.69003e-005         89.7945     6.53426e-006         89.5253
                    1.23117e-005        -89.0935      0.000188826        -90.1976         0.999999         179.801     4.48497e-006        -90.7925
                    6.46341e-006         89.5381      8.4583e-005         89.7066
                    7.28988e-005         89.7506     9.09767e-006          90.254     4.48496e-006        -90.7985                1         179.788
                     0.000182311        -90.2208     1.20998e-005        -90.1994
                    8.61201e-006         89.2919     6.68996e-005         89.7838     6.46332e-006         89.5295       0.00018231        -90.2242
                               1         179.782      0.000194209         -90.206
                    5.12092e-006        -88.9568     6.53422e-006         89.5231     8.45838e-005          89.705     1.20997e-005        -90.2035
                      0.00019421        -90.2012                1         179.798
0.24                           1          179.72      0.000238001         -90.274     1.48295e-005        -90.0134     9.74487e-005         89.7055
                    1.20487e-005         89.7009     6.10703e-006        -90.1939
                     0.000238986        -90.3165                1         179.713      0.000251697        -90.2887     1.20707e-005         89.6819
                    8.92058e-005         89.7233     8.76771e-006         90.0935
                    1.60983e-005        -90.9239      0.000251698        -90.2903                1         179.734     6.01909e-006        -90.1497
                    8.67107e-006         90.0889      0.000112928         89.7728
                    9.72517e-005         89.7231     1.20708e-005         89.6878     6.01902e-006        -90.1543                1         179.717
                     0.000243107        -90.2816     1.61455e-005        -90.1506
                    1.15928e-005         90.0999     8.92051e-005         89.7155     8.67098e-006         90.0829      0.000243106        -90.2841
                               1          179.71      0.000258922         -90.284
                    6.67153e-006        -91.1456     8.76772e-006         90.0921      0.000112929         89.7715     1.61454e-005        -90.1534
                     0.000258923        -90.2805                1         179.731
0.3                            1          179.65      0.000297665         -90.314     1.86514e-005        -89.7144      0.000121745         89.6054
                    1.49875e-005         89.3829     7.67481e-006        -89.9615
                     0.000298451        -90.4282                1         179.641      0.000314527        -90.3709     1.50085e-005         89.3439
                     0.000111515         89.6519     1.10365e-005         90.3907
                    1.97015e-005        -91.9789      0.000314528        -90.3723                1         179.668     7.57744e-006        -89.8298
                    1.09127e-005         90.3771      0.000141368         89.7802
                     0.000121636         89.6728     1.50088e-005         89.3483     7.57729e-006        -89.8334                1         179.646
                     0.000303918        -90.3472     2.01986e-005        -90.1416
                    1.46418e-005         90.4917      0.000111515         89.6458     1.09127e-005         90.3726      0.000303917        -90.3491
                               1         179.637      0.000323619        -90.3583
                    8.13273e-006        -92.4253     1.10366e-005         90.3895      0.000141369          89.779     2.01985e-005        -90.1437
                      0.00032362        -90.3556                1         179.663
0.36                           1          179.58       0.00035739         -90.371      2.2515e-005        -89.6072      0.000146017         89.5222
                    1.78995e-005         89.2152     9.25716e-006        -89.9025
                     0.000357812        -90.5135                1         179.569      0.000377319        -90.4453     1.79171e-005         89.1676
                     0.000133829         89.5801     1.33358e-005         90.4962
                    2.31454e-005        -92.4511      0.000377319        -90.4465                1         179.601     9.15512e-006         -89.735
                    1.31837e-005         90.4795      0.000169889         89.7457
                     0.000146045         89.6062     1.79174e-005         89.1709     9.15489e-006        -89.7376                1         179.575
                     0.000364741        -90.4161     2.42572e-005        -90.1606
                    1.77455e-005         90.5905      0.000133829         89.5751     1.31837e-005         90.4758      0.000364741        -90.4176
                               1         179.565      0.000388302          -90.43
                    9.51547e-006         -93.017     1.33359e-005          90.495       0.00016989         89.7446     2.42573e-005        -90.1623
                     0.000388303        -90.4278                1         179.596
0.42                           1          179.51      0.000417151        -90.4407     2.64024e-005        -89.6428      0.000170276         89.4518
                    2.07957e-005         89.1631     1.08473e-005        -89.9727
                     0.000417112        -90.5788         0.999999         179.497      0.000440085        -90.5135     2.08084e-005         89.1162
                     0.000156148         89.5078     1.56557e-005         90.4577
                     2.6487e-005        -92.4502      0.000440085        -90.5146                1         179.535     1.07434e-005        -89.8071
                    1.54746e-005         90.4422      0.000198464         89.6793
                     0.000170468         89.5275     2.08087e-005         89.1185     1.07432e-005        -89.8087                1         179.505
                     0.000425572        -90.4876     2.83186e-005        -90.2006
                     2.0881e-005          90.474      0.000156148         89.5035     1.54747e-005         90.4391      0.000425572        -90.4889
                               1         179.492      0.000452976        -90.4996
                    1.08472e-005        -93.0438     1.56559e-005         90.4564      0.000198464         89.6784     2.83187e-005        -90.2021
                     0.000452976        -90.4977                1         179.529
0.48                           1          179.44      0.000476917        -90.5198     3.02909e-005        -89.7802      0.000194536         89.3907
                    2.36909e-005         89.1965     1.24366e-005        -90.1351
                     0.000476405        -90.6298         0.999999         179.426       0.00050284        -90.5774     2.36981e-005          89.157
                     0.000178471         89.4351     1.79835e-005         90.3161
                     2.9806e-005        -92.0852      0.000502839        -90.5782                1         179.468     1.23315e-005        -89.9979
                    1.77734e-005         90.3047      0.000227056         89.5897
                     0.000194891         89.4404     2.36984e-005         89.1585     1.23313e-005        -89.9987                1         179.434
                     0.000486404         -90.561     3.23788e-005        -90.2558
                    2.40201e-005         90.2093      0.000178472         89.4313     1.77735e-005         90.3019      0.000486403        -90.5621
                               1          179.42      0.000517646        -90.5676
                    1.21669e-005        -92.6297     1.79838e-005         90.3145      0.000227056         89.5889      3.2379e-005        -90.2573
                     0.000517646         -90.566                1         179.462
0.54                    0.999999          179.37      0.000536655        -90.6047     3.41568e-005        -89.9805      0.000218809         89.3355
                    2.66007e-005         89.2842     1.40162e-005        -90.3549
                     0.000535744        -90.6723         0.999999         179.354      0.000565602        -90.6383     2.66033e-005         89.2567
                     0.000200799         89.3622     2.03062e-005         90.1102
                    3.31888e-005        -91.4848        0.0005656         -90.639                1         179.402     1.39081e-005        -90.2618
                    2.00674e-005         90.1047      0.000255627         89.4853
                     0.000219298         89.3489     2.66034e-005         89.2576     1.39079e-005         -90.262                1         179.363
                     0.000547228        -90.6356      3.6434e-005        -90.3205
                    2.71346e-005         89.8594        0.0002008         89.3587     2.00675e-005         90.1021      0.000547228        -90.6366
                               1         179.347      0.000582317        -90.6347
                    1.35176e-005        -91.9268     2.03063e-005         90.1083      0.000255626         89.4847     3.64341e-005        -90.3219
                     0.000582317        -90.6332                1         179.394
0.6                     0.999999           179.3      0.000596336        -90.6922     3.79798e-005        -90.2069      0.000243109         89.2828
                    2.95388e-005         89.3952     1.55782e-005        -90.5987
                     0.000595175         -90.712         0.999999         179.282      0.000628383         -90.698     2.95388e-005         89.3815
                     0.000223132          89.289     2.26121e-005         89.8771
                    3.67098e-005        -90.7914      0.000628382        -90.6986                1         179.335     1.54634e-005        -90.5563
                    2.23456e-005         89.8781      0.000284143         89.3745
                     0.000243681         89.2565     2.95386e-005         89.3821     1.54633e-005        -90.5561                1         179.292
                      0.00060804        -90.7106     4.04806e-005         -90.389
                    3.02013e-005         89.4831      0.000223132         89.2858     2.23458e-005         89.8756       0.00060804        -90.7115
                               1         179.275      0.000646996        -90.7012
                    1.49363e-005        -91.1076     2.26121e-005         89.8751      0.000284142          89.374     4.04807e-005        -90.3904
                     0.000646995        -90.6999                1         179.327
0.66                    0.999999         179.229       0.00065594        -90.7791     4.17462e-005        -90.4269      0.000267444         89.2295
                    3.25144e-005         89.5009     1.71175e-005         -90.837
                     0.000654725         -90.754         0.999999          179.21      0.000691195         -90.758     3.25145e-005         89.5005
                     0.000245469         89.2158     2.48938e-005           89.65
                    4.04143e-005        -90.1404      0.000691193        -90.7584         0.999999         179.269     1.69908e-005        -90.8433
                    2.46009e-005         89.6572      0.000312583         89.2647
                     0.000268033         89.1666      3.2514e-005          89.501     1.69909e-005        -90.8429                1         179.222
                     0.000668834        -90.7855     4.45163e-005        -90.4564
                    3.32064e-005         89.1312      0.000245469         89.2128      2.4601e-005         89.6548      0.000668835        -90.7864
                        0.999999         179.202      0.000711684        -90.7679
                    1.64456e-005        -90.3389     2.48936e-005         89.6481      0.000312582         89.2643     4.45163e-005        -90.4578
                     0.000711684        -90.7666                1          179.26
0.72                    0.999999         179.159      0.000715461        -90.8631     4.54509e-005        -90.6139      0.000291817         89.1731
                    3.55307e-005         89.5783     1.86318e-005        -91.0457
                     0.000714396        -90.8022         0.999999         179.139      0.000754038        -90.8194     3.55338e-005         89.5886
                      0.00026781         89.1427     2.71491e-005         89.4558
                    4.43088e-005        -89.6388      0.000754038        -90.8198         0.999999         179.202     1.84878e-005         -91.092
                     2.6831e-005         89.4681      0.000340938         89.1622
                     0.000292356         89.0816      3.5533e-005         89.5892     1.84882e-005        -91.0918         0.999999         179.151
                      0.00072961        -90.8598     4.85401e-005        -90.5186
                    3.61483e-005         88.8437       0.00026781         89.1399     2.68311e-005         89.4658       0.00072961        -90.8606
                        0.999999          179.13      0.000776384         -90.835
                    1.80485e-005        -89.7525     2.71487e-005         89.4541      0.000340937         89.1618       4.854e-005        -90.5199
                     0.000776383        -90.8338                1         179.192
0.78                    0.999999         179.089      0.000774906        -90.9426     4.90989e-005        -90.7499      0.000316225         89.1118
                    3.85845e-005         89.6117     2.01229e-005        -91.2084
                     0.000774168        -90.8592         0.999999         179.067       0.00081691        -90.8833      3.8593e-005          89.629
                     0.000290157         89.0698     2.93817e-005         89.3132
                    4.83599e-005        -89.3505       0.00081691        -90.8836         0.999998         179.136     1.99567e-005        -91.2812
                    2.90397e-005          89.329      0.000369218         89.0711
                     0.000316658         89.0027     3.85919e-005         89.6299     1.99572e-005        -91.2815         0.999999          179.08
                     0.000790368        -90.9331     5.25527e-005         -90.573
                    3.90378e-005         88.6461      0.000290157         89.0672     2.90398e-005         89.3268      0.000790369        -90.9338
                        0.999999         179.057      0.000841094        -90.9029
                    1.97284e-005        -89.4264     2.93811e-005         89.3119      0.000369217         89.0708     5.25525e-005        -90.5742
                     0.000841093        -90.9018         0.999999         179.125
0.84                    0.999999         179.019      0.000834294        -91.0166     5.27037e-005        -90.8264       0.00034066          89.045
                    4.16664e-005         89.5948     2.15955e-005        -91.3173
                     0.000833998        -90.9257         0.999999         178.995      0.000879797        -90.9498     4.16822e-005         89.6149
                      0.00031251         88.9972     3.16007e-005         89.2312
                    5.25031e-005        -89.2929      0.000879798        -90.9501         0.999998         179.069     2.14037e-005         -91.401
                    3.12356e-005         89.2486      0.000397447         88.9935
                     0.000340952         88.9301     4.16809e-005         89.6161     2.14043e-005        -91.4017         0.999999         179.009
                     0.000851114        -91.0052     5.65562e-005        -90.6183
                    4.18968e-005         88.5478       0.00031251         88.9948     3.12356e-005         89.2466      0.000851114        -91.0059
                        0.999999         178.985      0.000905809        -90.9718
                    2.14528e-005        -89.3804        3.16e-005         89.2303      0.000397447         88.9933     5.65559e-005        -90.6193
                     0.000905809        -90.9707         0.999999         179.058
0.9                     0.999999         178.949      0.000893654        -91.0855     5.62848e-005        -90.8446      0.000365111         88.9729
                    4.47636e-005         89.5296     2.30566e-005        -91.3733
                      0.00089383        -91.0008         0.999999         178.923      0.000942684        -91.0191      4.4787e-005         89.5483
                     0.000334871          88.925     3.38193e-005         89.2089
                    5.66557e-005        -89.4427      0.000942685        -91.0194         0.999998         179.003     2.28381e-005        -91.4524
                    3.34313e-005         89.2262      0.000425662         88.9294
                     0.000365253          88.863     4.47857e-005         89.5499     2.28387e-005        -91.4537         0.999999         178.938
                     0.000911853        -91.0762     6.05535e-005        -90.6548
                    4.47544e-005         88.5421       0.00033487         88.9228     3.34313e-005         89.2244      0.000911853        -91.0769
                        0.999999         178.912      0.000970525        -91.0415
                     2.3181e-005        -89.5852     3.38185e-005         89.2086      0.000425662         88.9291     6.05532e-005        -90.6557
                     0.000970526        -91.0405         0.999999          178.99
0.96                    0.999999         178.879      0.000953017        -91.1501     5.98641e-005        -90.8146      0.000389564         88.8963
                    4.78616e-005         89.4251     2.45143e-005        -91.3857
                     0.000953607        -91.0824         0.999999         178.851       0.00100555        -91.0906      4.7892e-005         89.4393
                      0.00035724         88.8531     3.60521e-005         89.2366
                    6.07329e-005        -89.7483       0.00100555        -91.0909         0.999998         178.937     2.42701e-005        -91.4471
                     3.5641e-005         89.2524      0.000453901         88.8763
                     0.000389578         88.7998     4.78908e-005         89.4412     2.42707e-005        -91.4489         0.999999         178.868
                     0.000972591        -91.1463      6.4548e-005        -90.6841
                    4.76414e-005         88.6079      0.000357239         88.8511     3.56409e-005         89.2508      0.000972591        -91.1469
                        0.999999          178.84       0.00103524         -91.112
                    2.48711e-005        -89.9775     3.60514e-005         89.2367      0.000453902         88.8761     6.45477e-005        -90.6849
                      0.00103524         -91.111         0.999999         178.923
1.02                    0.999999         178.809       0.00101241        -91.2118     6.34616e-005         -90.753      0.000414009         88.8168
                    5.09477e-005         89.2955     2.59755e-005        -91.3692
                      0.00101328        -91.1677         0.999999          178.78       0.00106838        -91.1635      5.0983e-005         89.3032
                      0.00037962         88.7815     3.83133e-005         89.2979
                     6.4663e-005        -90.1414       0.00106838        -91.1639         0.999998          178.87     2.57093e-005        -91.4044
                    3.78782e-005         89.3112      0.000482204         88.8308
                     0.000413938         88.7383     5.09821e-005         89.3052     2.57096e-005        -91.4065         0.999999         178.797
                      0.00103334        -91.2158     6.85427e-005        -90.7089
                    5.05845e-005         88.7141      0.000379619         88.7797     3.78781e-005         89.3098       0.00103334        -91.2164
                        0.999999         178.767       0.00109993         -91.183
                    2.64878e-005        -90.4753     3.83128e-005         89.2983      0.000482204         88.8306     6.85424e-005        -90.7095
                      0.00109993        -91.1821         0.999999         178.856
1.08                    0.999999         178.739       0.00107186        -91.2725      6.7091e-005        -90.6796      0.000438436         88.7363
                    5.40127e-005         89.1568     2.74454e-005         -91.342
                      0.00107282        -91.2534         0.999998         178.708       0.00113116        -91.2371     5.40503e-005         89.1573
                     0.000402013         88.7101     4.06135e-005         89.3724
                    6.83993e-005        -90.5491       0.00113116        -91.2375         0.999999         178.804     2.71621e-005        -91.3478
                    4.01533e-005         89.3831      0.000510598         88.7884
                     0.000438342         88.6764     5.40497e-005         89.1592     2.71622e-005        -91.3499         0.999999         178.726
                      0.00109409        -91.2851     7.25394e-005        -90.7321
                     5.3601e-005          88.826      0.000402012         88.7084     4.01532e-005         89.3817       0.00109409        -91.2857
                        0.999999         178.695       0.00116461        -91.2543
                    2.80082e-005        -90.9917     4.06133e-005         89.3729      0.000510598         88.7881     7.25392e-005        -90.7326
                      0.00116462        -91.2535         0.999999         178.788
1.14                    0.999998         178.669       0.00113137        -91.3339     7.07572e-005        -90.6141      0.000462843         88.6565
                    5.70534e-005         89.0249     2.89252e-005        -91.3219
                      0.00113222        -91.3365         0.999998         178.636       0.00119388        -91.3105     5.70901e-005         89.0187
                     0.000424419         88.6388     4.29587e-005         89.4401
                    7.19282e-005         -90.904       0.00119389        -91.3108         0.999999         178.737     2.86309e-005        -91.3005
                    4.24719e-005         89.4483      0.000539098         88.7446
                     0.000462788          88.612     5.70899e-005         89.0204     2.86307e-005        -91.3024         0.999999         178.655
                      0.00115486        -91.3545     7.65386e-005        -90.7565
                    5.66952e-005         88.9111      0.000424418         88.6373     4.24719e-005         89.4471       0.00115486        -91.3551
                        0.999998         178.622       0.00122928        -91.3255
                    2.94251e-005        -91.4463     4.29587e-005         89.4405      0.000539099         88.7444     7.65386e-005         -90.757
                      0.00122928        -91.3247         0.999999         178.721
1.2                     0.999998         178.599       0.00119093        -91.3974     7.44548e-005        -90.5726      0.000487233         88.5789
                     6.0073e-005         88.9126     3.04129e-005        -91.3236
                      0.00119149        -91.4147         0.999998         178.564       0.00125655        -91.3827      6.0106e-005         88.9015
                     0.000446841         88.5675     4.53484e-005         89.4837
                    7.52721e-005        -91.1527       0.00125655        -91.3831         0.999999         178.671     3.01129e-005        -91.2816
                    4.48339e-005         89.4904      0.000567702         88.6958
                      0.00048727         88.5438     6.01059e-005         88.9028     3.01125e-005        -91.2831         0.999999         178.585
                      0.00121564        -91.4244     8.05393e-005        -90.7846
                    5.98578e-005         88.9449      0.000446841          88.566     4.48339e-005         89.4892       0.00121564        -91.4249
                        0.999998         178.549       0.00129392        -91.3964
                    3.07492e-005        -91.7748     4.53487e-005         89.4838      0.000567703         88.6955     8.05393e-005        -90.7851
                      0.00129392        -91.3957         0.999999         178.654