! Touchstone file from project Project1
! Exported from HFSS 2017.1.0
!Data is not renormalized
# GHZ S MA
! Modal data exported
! Port[1] = 1:1
! Port[2] = 2:1
! Port[3] = 3:1
2.9              0.246751117932672 -58.8462095640286 0.753906566314412 50.8598467471339 0.6088832195643  -167.11151962802 
                0.753906566314413 50.859846747134  0.246531286130755 151.766688538289 0.608972260638141 118.196893975302 
                0.608883219564303 -167.11151962802 0.608972260638143 118.196893975302 0.508344381995396 78.0925078800209 
! Gamma         !               0                43.4948902441111 0                43.494863784402  0                43.4948959726346 
! Port Impedance526.440740114976 0                526.441060370466 0                526.440670779757 0                

2.91022222222222 0.246042253229183 -61.781025126677 0.75463647484663 47.4906552353678 0.608267518486078 -169.547454969949 
                0.754636474846937 47.4906552353602 0.245826888823101 147.803889594642 0.608357649659088 115.246955938431 
                0.608267518485854 -169.547454969939 0.608357649658946 115.246955938411 0.50981732714614 76.0496025557394 
! Gamma         !               0                43.7937714157648 0                43.7937451366365 0                43.7937771051927 
! Port Impedance524.690906949552 0                524.691221798617 0                524.690838784821 0                

2.92044444444445 0.245328884789701 -64.7076029046208 0.755370664641854 44.1323891447182 0.60764520083016 -171.976658422043 
                0.755370664642353 44.132389144705  0.245116162310274 143.852621068427 0.607736021492004 112.305428964149 
                0.607645200829786 -171.976658422027 0.607736021491759 112.305428964115 0.511299971622753 74.0109508996792 
! Gamma         !               0                44.0916675971682 0                44.0916414955895 0                44.0916732481566 
! Port Impedance522.97647902774  0                522.976788621834 0                522.976412000708 0                

2.93066666666667 0.24461103554695 -67.6261395040079 0.756109297488276 40.7848205751887 0.607016203342654 -174.399297635571 
                0.756109297488879 40.7848205751717 0.244399557640587 139.912650807445 0.607107394816983 109.372116429459 
                0.60701620334219 -174.39929763555 0.607107394816672 109.372116429418 0.512792415614449 71.9764108136249 
! Gamma         !               0                44.3885986194203 0                44.3885726924444 0                44.3886042326073 
! Port Impedance521.296396499761 0                521.296700984414 0                521.29633057892  0                

2.94088888888889 0.243888719055675 -70.5368269129218 0.756852512284161 37.4477285822581 0.606380455942662 -176.815535959807 
                0.756852512284802 37.447728582239  0.243677449703526 135.983745946748 0.606471768340374 106.446826045263 
                0.606380455942157 -176.815535959784 0.606471768340028 106.446826045218 0.514294757896441 69.9458435123527 
! Gamma         !               0                44.6845837231002 0                44.6845579678614 0                44.6845892991061 
! Port Impedance519.649642064889 0                519.649941580007 0                519.64957721995  0                

2.95111111111111 0.243161940648164 -73.4398525778416 0.757600428662533 34.1208989138594 0.605737882362231 -179.22553260133 
                0.757600428663162 34.1208989138396 0.242950145380928 132.065674003152 0.605829123025795 103.529369808178 
                0.605737882361722 -179.225532601305 0.605829123025437 103.529369808133 0.515807096182074 67.9191133884212 
! Gamma         !               0                44.979641581847  0                44.9796159955578 0                44.9796471212754 
! Port Impedance518.035238824157 0                518.035533504296 0                518.035175025989 0                

2.96133333333333 0.242430698477169 -76.3353994906187 0.758353150182155 30.8041237506561 0.605088400711348 178.37055722133  
                0.758353150182739 30.8041237506366 0.242217891220122 128.158203806524 0.60517942411703 100.619563940216 
                0.605088400710863 178.370557221354 0.605179424116681 100.619563940173 0.517329527443123 65.8960878812482 
! Gamma         !               0                45.2737903247564 0                45.2737649047042 0                45.2737958281946 
! Port Impedance516.452248263408 0                516.452538238037 0                516.452185483981 0                

2.97155555555555 0.241694984453365 -79.2236462841987 0.75911076712374 27.4972014511227 0.604431923974422 175.972582127706 
                0.759110767124256 27.4972014511045 0.241480880608025 124.261106282249 0.604522622964755 97.7172288180301 
                0.604431923973982 175.972582127729 0.604522622964432 97.7172288179908 0.518862148200603 63.8766373503998 
! Gamma         !               0                45.5670475576651 0                45.5670223012096 0                45.5670530256846 
! Port Impedance514.899768357482 0                514.900053751226 0                514.899706569813 0                

2.98177777777778 0.240954785084322 -82.1047673354998 0.759873358928176 24.1999363026424 0.603768360444207 173.580394430067 
                0.759873358928613 24.1999363026262 0.240739260434619 120.37415509886  0.603858658668934 94.822188893308  
                0.603768360443824 173.580394430087 0.603858658668647 94.8221888932739 0.520405054788357 61.8606349530029 
! Gamma         !               0                45.8594303833895 0                45.8594052879599 0                45.8594358165469 
! Port Impedance513.376931787035 0                513.377212719912 0                513.376870965143 0                

2.992            0.240210082221839 -84.9789328739974 0.760640996311371 20.9121382796064 0.603097614098697 171.193849992706 
                0.760640996311724 20.9121382795926 0.239993137242147 116.497127194225 0.603187459548575 91.9342726057559 
                0.60309761409838 171.193849992722 0.603187459548333 91.9342726057276 0.52195834359149 59.8479565251967 
! Gamma         !               0                46.1509554209801 0                46.1509304840727 0                46.1509608198175 
! Port Impedance511.882904260218 0                511.883180847851 0                511.882844379069 0                

3.00222222222222 0.239460853724272 -87.8463090947347 0.761413743088112 17.6336228092577 0.602419584926146 168.812808095794 
                0.761413743088379 17.6336228092468 0.23924258286322 112.629803193066 0.602508944450335 89.0533122899602 
                0.602419584925899 168.812808095807 0.602508944450145 89.0533122899381 0.523522111261659 57.8384804675158 
! Gamma         !               0                46.4416388240506 0                46.4416140432262 0                46.4416441890961 
! Port Impedance510.416882931979 0                510.417155285803 0                510.416823967447 0                

3.01244444444445 0.238707074040255 -90.7070582745944 0.762191657735172 14.364210545853  0.601734169202944 166.437131303744 
                0.762191657735359 14.3642105458451 0.238487639556636 108.771967727902 0.601823023907138 86.1791440773162 
                0.601734169202768 166.437131303754 0.601823023907002 86.1791440773004 0.525096454911066 55.8320876341089 
! Gamma         !               0                46.7314962982329 0                46.7314716711145 0                46.7315016300011 
! Port Impedance508.978094914406 0                508.978363141864 0                508.978036843231 0                

3.02266666666667 0.237948714720009 -93.5613388908038 0.762974794721781 11.1037271535342 0.601041259728742 164.066685337987 
                0.762974794721895 11.1037271535293 0.237728324654442 104.923409674809 0.601129601157673 83.3116077940802 
                0.601041259728635 164.066685337993 0.601129601157591 83.3116077940706 0.526681472286894 53.8286612256848 
! Gamma         !               0                47.0205431178103 0                47.0205186420809 0                47.0205484168028 
! Port Impedance507.565795871971 0                507.566060076693 0                507.565738671716 0                

3.03288888888889 0.237185744860129 -96.4093057407651 0.763763205633462 7.8520030981564  0.600340746022881 161.701338954074 
                0.763763205633511 7.85200309815439 0.236964634737535 101.083922314617 0.600428573037256 80.4505468564974 
                0.600340746022839 161.701338954076 0.600428573037228 80.4505468564935 0.528277261927846 51.8280866860732 
! Gamma         !               0                47.3087941415746 0                47.3087698149752 0                47.3087994082805 
! Port Impedance506.179268696029 0                506.17952897801  0                506.179212345046 0                

3.04311111111111 0.23641813148752 -99.2511100624023 0.764556940113251 4.6088734482028  0.599632514485836 159.340963823011 
                0.764556940113246 4.60887344820361 0.236196549360178 97.2533034294592 0.599719830750158 77.5958081638595 
                0.599632514485853 159.34096382301  0.599719830750181 77.5958081638609 0.529883923304313 49.8302516022913 
! Gamma         !               0                47.5962638279501 0                47.5962396482774 0                47.5962690628464 
! Port Impedance504.817822253372 0                504.81807870913  0                504.817766730765 0                

3.05333333333333 0.235645839887831 -102.086899654326 0.765356046642344 1.37417768479637 0.598916448529114 156.985434416707 
                0.765356046642295 1.3741776847997  0.235424034346108 93.4313553438229 0.599003260533042 74.747241990248  
                0.598916448529185 156.985434416702 0.599003260533113 74.7472419902541 0.531501556943625 47.8350456079991 
! Gamma         !               0                47.8829662494264 0                47.8829422145311 0                47.8829714529784 
! Port Impedance503.480790203992 0                503.481042926723 0                503.480735489583 0                

3.06355555555555 0.234868833883496 -104.916818995199 0.766160573180376 -1.85224047926021 0.598192428676742 154.63462789742  
                0.766160573180294 -1.85224047925461 0.234647044680703 89.617884918515  0.598278744218779 71.9047018756368 
                0.598192428676859 154.634627897412 0.598278744218894 71.904701875647  0.533130264541727 45.842360290231  
! Gamma         !               0                48.1689151063368 0                48.1688912141219 0                48.1689202789986 
! Port Impedance502.167529883595 0                502.167778963329 0                502.167475957894 0                

3.07377777777778 0.234087076066183 -107.741009361796 0.766970567683745 -5.07053327158159 0.59746033264122 152.288424011085 
                0.766970567683638 -5.07053327157401 0.233865527024882 85.8127035052359 0.597546159709395 69.0680445169311 
                0.597460332641375 152.288424011074 0.597546159709548 69.0680445169447 0.534770149062556 43.8520890992789 
! Gamma         !               0                48.4541237400203 0                48.4540999884387 0                48.454128882235  
! Port Impedance500.877421246729 0                500.87766677045  0                500.877368090904 0                

3.084            0.233300527988175 -110.559608945274 0.767786078518673 -8.28084902362668 0.596720035376564 149.946704984395 
                0.767786078518549 -8.28084902361748 0.233079421877193 82.0156268687779 0.596805381366492 66.2371296594779 
                0.596720035376751 149.946704984382 0.596805381366678 66.2371296594943 0.53642131482629 41.864127261623  
! Gamma         !               0                48.738605145396  0                48.7385815324497 0                48.7386102575962 
! Port Impedance499.609865866688 0                499.61010791848  0                499.609813462534 0                

3.09422222222222 0.232509150316942 -113.372752965322 0.768607154784163 -11.4833323257465 0.595971409110848 147.60935542551  
                0.768607154784033 -11.483332325736 0.23228866541091 78.2264750831342 0.59605628032701 63.4118199894704 
                0.59597140911106 147.609355425495 0.596056280327223 63.4118199894889 0.5380838675876  39.8783716957781 
! Gamma         !               0                49.0223719829872 0                49.0223485067249 0                49.0223770655953 
! Port Impedance498.364285988627 0                498.364524649791 0                498.364234318543 0                

3.10444444444445 0.23171290295687 -116.180573781842 0.769433846558428 -14.6781241741416 0.595214323360395 145.276262228255 
                0.769433846558296 -14.6781241741301 0.231493191013009 74.4450724072087 0.595298724751724 60.5919810276437 
                0.595214323360624 145.276262228239 0.595298724751959 60.5919810276638 0.539757914604894 37.8947209309494 
! Gamma         !               0                49.3054365904191 0                49.305413248935  0                49.3054416438478 
! Port Impedance497.14012363259  0                497.140358981765 0                497.140072679551 0                

3.11466666666667 0.230911745141844 -118.983201003916 0.770266205080985 -17.8653621100732 0.594448644927616 142.947314479696 
                0.770266205080857 -17.8653621100612 0.230692930551614 70.6712471451609 0.594532580013451 57.777481024582  
                0.594448644927856 142.947314479678 0.594532580013701 57.777481024603  0.54144356470156 35.9130750283772 
! Gamma         !               0                49.5878109934207 0                49.5877877848533 0                49.587816018073  
! Port Impedance495.936839743383 0                495.937071856655 0                495.936789490915 0                

3.12488888888889 0.230105635502129 -121.780761595885 0.771104282881285 -21.045180351695 0.593674237884259 140.622403370934 
                0.771104282881165 -21.0451803516827 0.229887815398009 66.9048314958316 0.593757708831424 54.9681908579    
                0.593674237884504 140.622403370915 0.593757708831684 54.9681908579215 0.543140928320066 33.9333355052526 
! Gamma         !               0                49.8695069163563 0                49.8694838388864 0                49.8695119126262 
! Port Impedance494.753913384421 0                494.754142335431 0                494.753863816581 0                

3.13511111111111 0.229294532108731 -124.573379980342 0.771948133863509 -24.2177099188694 0.592890963541691 138.301422111013 
                0.771948133863402 -24.217709918857 0.229077777228572 63.1456613951556 0.592973971357932 52.1639839315323 
                0.592890963541937 138.301422110994 0.592973971358198 52.1639839315538 0.544850117569767 31.9554052610943 
! Gamma         !               0                50.1505357923101 0                50.1505128441592 0                50.150540760582  
! Port Impedance493.590840972911 0                493.591066832955 0                493.590792074265 0                

3.14533333333333 0.228478392498157 -127.361178137974 0.772797813356   -27.3830787513641 0.592098680409638 135.984265843798 
                0.772797813355906 -27.3830787513519 0.228262748631091 59.3935763549187 0.592181225222803 49.3647360773002 
                0.59209868040988 135.984265843779 0.592181225223069 49.3647360773213 0.546571246269173 29.9791885064693 
! Gamma         !               0                50.4309087727448 0                50.4308859521754 0                50.4309137133955 
! Port Impedance492.447135553893 0                492.447358392017 0                492.447087309491 0                

3.15555555555556 0.227657173680275 -130.144275704156 0.773653378132753 -30.5414118208126 0.591297244144672 133.670831567686 
                0.773653378132674 -30.5414118208008 0.227442663538866 55.6484193007405 0.591379325540944 46.5703254588961 
                0.591297244144907 133.670831567668 0.591379325541205 46.5703254589165 0.548304429983416 28.0045906939477 
! Gamma         !               0                50.7106367367633 0                50.7106140420759 0                50.7106416501606 
! Port Impedance491.32232611082  0                491.322545993912 0                491.322278506182 0                

3.16577777777778 0.226830832131728 -132.922790062264 0.774514886413431 -33.6928312368288 0.590486507489604 131.361018058044 
                0.774514886413368 -33.6928312368176 0.226617457514843 51.9100364116993 0.590568124887708 43.780632478386  
                0.590486507489827 131.361018058026 0.590568124887962 43.7806324784055 0.550049786057539 26.0315184511774 
! Gamma         !               0                50.9897302999825 0                50.9897077295151 0                50.9897351864862 
! Port Impedance490.215956910551 0                490.216173903427 0                490.215909931644 0                

3.176            0.225999323777146 -135.696836433714 0.775382397847435 -36.8374563476501 0.589666320204766 129.054725792228 
                0.775382397847387 -36.8374563476397 0.225787067906726 48.1782769636067 0.58974747324648 40.9955396853057 
                0.589666320204976 129.05472579221  0.589747473246723 40.995539685324  0.551807433646242 24.0598795159779 
! Gamma         !               0                51.2681998230469 0                51.2681773751738 0                51.2682046830089 
! Port Impedance489.127586880738 0                489.127801046222 0                489.12754051396  0                

3.18622222222222 0.225162603960166 -138.466527964723 0.776255973486782 -39.9754038356952 0.588836528992103 126.751856877065 
                0.776255973486748 -39.9754038356855 0.224951433892726 44.4529931775268 0.588917217932456 38.2149316883791 
                0.588836528992298 126.751856877049 0.588917217932685 38.214931688396  0.553577493740618 22.0895826733339 
! Gamma         !               0                51.5460554197961 0                51.5460330929268 0                51.5460602535608 
! Port Impedance488.056789017735 0                488.057000416741 0                488.056743249899 0                

3.19644444444445 0.224320627406106 -141.23197580986 0.777135675751794 -43.1067878083828 0.587996977412817 124.452314978691 
                0.777135675751773 -43.106787808374 0.224110496436166 40.7340400748132 0.588077203496258 35.4386950698862 
                0.587996977412995 124.452314978675 0.588077203496471 35.4386950699016 0.555360089192426 20.1205376941955 
! Gamma         !               0                51.8233069651044 0                51.8232847576825 0                51.8233117730087 
! Port Impedance487.003149823297 0                487.003358514901 0                487.003104641612 0                

3.20666666666667 0.223473348177913 -143.993289212427 0.778021568392915 -46.2317198845682 0.587147505799255 122.156005254596 
                0.778021568392906 -46.2317198845604 0.22326419816579 37.0212753395927 0.587227271610648 32.6667183026657 
                0.587147505799415 122.156005254581 0.587227271610843 32.6667183026796 0.557155344736305 18.1526552759745 
! Gamma         !               0                52.099964102407  0                52.0999420129093 0                52.0999688847808 
! Port Impedance485.966268768412 0                485.966474809923 0                485.966224160471 0                

3.21688888888889 0.222620719626834 -146.750575581764 0.778913716451405 -49.3503092769266 0.586287951161606 119.862834287797 
                0.778913716451405 -49.3503092769198 0.222412483197149 33.3145591893442 0.586367260943272 29.8988916697232 
                0.586287951161748 119.862834287783 0.586367260943448 29.8988916697355 0.558963387010426 16.1858469846357 
! Gamma         !               0                52.3760362509295 0                52.3760142778648 0                52.3760410080956 
! Port Impedance484.945757782762 0                484.945961229792 0                484.945713736526 0                

3.22711111111111 0.221762694339116 -149.503940567555 0.779812186221088 -52.4626628705946 0.585418147089877 117.572710022994 
                0.779812186221096 -52.4626628705887 0.221555296909039 29.6137542539762 0.585497007018043 27.1351071864056 
                0.585418147090001 117.572710022982 0.5854970070182  27.1351071864163 0.560784344575898 14.2200251982883 
! Gamma         !               0                52.6515326126333 0                52.6515107545416 0                52.6515373449077 
! Port Impedance483.941240768368 0                483.941441674893 0                483.94119727215  0                

3.23733333333333 0.220899224079824 -152.253488131259 0.780717045212896 -55.5688852983686 0.58453792365157 115.285541704626 
                0.78071704521291 -55.5688852983637 0.220692585687523 25.9187254635638 0.584616342067461 24.3752585250751 
                0.584537923651676 115.285541704615 0.584616342067598 24.3752585250843 0.56261834793532 12.2551030521734 
! Gamma         !               0                52.9264621788913 0                52.9264404343428 0                52.9264668865842 
! Port Impedance482.952353136083 0                482.952551554508 0                482.952310178538 0                

3.24755555555556 0.220030259734784 -154.99932061475 0.781628362123494 -58.6690790127343 0.583647107285355 113.001239816695 
                0.781628362123511 -58.6690790127302 0.2198242966487  22.2293399447293 0.583725094877892 21.6192409422163 
                0.583647107285444 113.001239816686 0.583725094878009 21.619240942224  0.564465529550773 10.2909943849595 
! Gamma         !               0                53.2008337369063 0                53.2008121045005 0                53.20083842032   
! Port Impedance481.978741363688 0                481.978937344903 0                481.978698933798 0                

3.25777777777778 0.219155751251468 -157.741538806319 0.782546206808925 -61.7633443549918 0.582745520691013 110.719716024282 
                0.782546206808944 -61.7633443549885 0.218950377350018 18.5454669254618 0.582823090629536 18.8669512078822 
                0.582745520691086 110.719716024274 0.582823090629635 18.8669512078886 0.566326023861504 8.32761368624381 
! Gamma         !               0                53.474655875884  0                53.4746343542491 0                53.4746605353158 
! Port Impedance481.020062574404 0                481.020256167841 0                481.020020661468 0                

3.268            0.218275647579528 -160.480242004126 0.783470650263903 -64.8517796217016 0.58183298271583 108.440883116628 
                0.783470650263923 -64.851779621699 0.218070775498623 14.8669776480629 0.581910150732577 16.1182875374025 
                0.581832982715889 108.440883116622 0.581910150732657 16.1182875374075 0.568199967301593 6.36487604517862 
! Gamma         !               0                53.7479369929712 0                53.747915580763  0                53.7479416287121 
! Port Impedance480.075984134728 0                480.076175388414 0                480.075942728346 0                

3.27822222222222 0.217389896611571 -163.215528077261 0.784401764607102 -67.9344811286881 0.580909308237567 106.164654951707 
                0.78440176460712 -67.9344811286862 0.217185438664013 11.1937452897491 0.580986092660745 13.3731495252361 
                0.580909308237612 106.164654951702 0.580986092660807 13.37314952524   0.570087498317761 4.40269710012222 
! Gamma         !               0                54.0206852989714 0                54.0206639948726 0                54.0206899113066 
! Port Impedance479.146183270547 0                479.146372231159 0                479.146142360615 0                

3.28844444444444 0.216498445124653 -165.947493524522 0.785339623072544 -71.011543272789 0.579974308044082 103.890946402178 
                0.785339623072561 -71.0115432727877 0.216294314001035 7.52564489038635 0.580050729783323 10.6314380808762 
                0.579974308044115 103.890946402174 0.58005072978337 10.631438080879  0.571988757387541 2.44099298923456 
! Gamma         !               0                54.2929088238467 0                54.2928876265662 0                54.2929134130557 
! Port Impedance478.230346700577 0                478.230533413483 0                478.230306277273 0                

3.29866666666667 0.21560123872286 -168.676233531047 0.786284300007045 -74.0830585915351 0.579027788709641 101.619673302635 
                0.786284300007057 -74.0830585915342 0.215397347988203 3.86255328674774 0.579103871196411 7.89305536669413 
                0.579027788709663 101.619673302632 0.579103871196444 7.89305536669601 0.573903887037947 0.479680301930975 
! Gamma         !               0                54.5646154220157 0                54.5645943302879 0                54.5646199883726 
! Port Impedance477.328170286193 0                477.328354795507 0                477.328130339966 0                

3.30888888888889 0.21469822178127 -171.401842022927 0.787235870873467 -77.1491178209344 0.578069552467882 99.3507523980708 
                0.787235870873476 -77.149117820934 0.21449448618522 0.204349052621659 0.578145321554053 5.15790473760427 
                0.578069552467894 99.3507523980691 0.578145321554073 5.15790473760536 0.575833031864767 -1.48132396889516 
! Gamma         !               0                54.8358127774572 0                54.8357917900412 0                54.8358173212306 
! Port Impedance476.43935869681  0                476.439541045432 0                476.439319218372 0                

3.31911111111111 0.213789337391492 -174.124411719927 0.788194412259446 -80.2098099515003 0.577099397081383 97.0841012934559 
                0.78819441225945 -80.2098099515002 0.213585673012653 -3.44908755590283 0.577174880899679 2.42589068244373 
                0.577099397081387 97.0841012934551 0.577174880899687 2.42589068244414 0.577776338552598 -3.44210247395621 
! Gamma         !               0                55.1065084086274 0                55.1064875243064 0                55.1065129300807 
! Port Impedance475.563625090003 0                475.563805319662 0                475.56358607032  0                

3.32933333333333 0.212874527308915 -176.844034186428 0.789160001891137 -83.2652222826589 0.576117115707737 94.8196384043659 
                0.789160001891136 -83.2652222826591 0.212670851555811 -7.09787465068742 0.57619234449815 -0.303081233052393 
                0.576117115707735 94.8196384043659 0.57619234449815 -0.303081233052525 0.579733955895682 -5.40273755404349 
! Gamma         !               0                55.3767096731994 0                55.37668889078   0                55.3767141725912 
! Port Impedance474.700690805603 0                474.700868956899 0                474.700652235884 0                

3.33955555555555 0.211953731901722 -179.56079988073 0.790132718651473 -86.3154404756593 0.575122496761998 92.5572829085668 
                0.790132718651467 -86.3154404756597 0.211749963394068 -10.7421287580377 0.575197502668525 -3.02910442179669 
                0.575122496761991 92.5572829085676 0.575197502668517 -3.02910442179726 0.581706034819624 -7.36331128597045 
! Gamma         !               0                55.6464237726329 0                55.6464030909443 0                55.6464282502163 
! Port Impedance473.850285073064 0                473.850461185508 0                473.850246944756 0                

3.34977777777778 0.211026890101678 177.725201797195 0.79111264260237 -89.3605486050881 0.574115323775332 90.2969546984871 
                0.79111264260236 -89.3605486050885 0.210822948456143 -14.381964862127 0.574190140617551 -5.75227132952875 
                0.574115323775322 90.2969546984884 0.574190140617537 -5.75227132952966 0.583692728403999 -9.32390552806121 
! Gamma         !               0                55.91565775658   0                55.9156371744739 0                55.9156622126039 
! Port Impedance473.012144731423 0                473.012318843473 0                473.012107036199 0                

3.36             0.210093939356634 175.013882459375 0.792099855010296 -92.4006292090756 0.573095375249699 88.038574334503  
                0.792099855010283 -92.400629209076 0.20988974490122 -18.0174964460118 0.573170038273763 -8.47267348773646 
                0.573095375249686 88.0385743345048 0.573170038273744 -8.4726734877376 0.585694191905894 -11.2846019652573 
! Gamma         !               0                56.1844185271366 0                56.1843980434859 0                56.1844229618449 
! Port Impedance472.186013961222 0                472.186186110319 0                472.185976690977 0                

3.37022222222222 0.209154815584658 172.305154684836 0.793094438374591 -95.4357633382889 0.572062424508328 85.7820629989587 
                0.793094438374575 -95.4357633382894 0.208950289025198 -21.6488355308827 0.572136970121953 -11.1904015654411 
                0.572062424508314 85.7820629989608 0.572136970121931 -11.1904015654424 0.587710582784364 -13.2454821539253 
! Gamma         !               0                56.4527128429434 0                56.4526924566424 0                56.4527172565755 
! Port Impedance471.371644027793 0                471.371814250397 0                471.371607174633 0                

3.38044444444445 0.20820945312966 169.598931975836 0.794096476457962 -98.4660306037662 0.571016239541766 83.5273424508593 
                0.794096476457943 -98.4660306037667 0.208004515190889 -25.276092714123 0.571090705037689 -13.9055454199419 
                0.571016239541751 83.5273424508616 0.571090705037667 -13.9055454199432 0.589742060725778 -15.2066275664293 