! Touchstone file from project Project1
! Exported from HFSS 2017.1.0
# GHZ S MA R 50.000000
! Modal data exported
! Port[1] = 1:1
! Port[2] = 2:1
! Port[3] = 3:1
2.9              0.975942478458734 -8.66588502467707 0.211752029463053 83.5526502191049 0.0519360833920198 -115.222680914553 
                0.211752029463053 83.5526502191056 0.957470974788014 -1.59819789713787 0.195985740442431 90.9032901015508 
                0.0519360833920189 -115.222680914551 0.195985740442431 90.903290101551  0.979230428849679 6.46573427835584 

2.91022222222222 0.973857618698112 -9.65002973911698 0.219158050958304 82.398498644689  0.059776041043501 -113.60929219265 
                0.219158050958342 82.3984986446826 0.955610356612183 -2.55225060178291 0.196921631491552 89.7905014919192 
                0.059776041043524 -113.609292192597 0.196921631491496 89.7905014919181 0.978596208938062 5.8327671545971  

2.92044444444445 0.971255534143664 -10.7182762975172 0.228033543934841 81.1764538522905 0.0683149964432657 -112.669574713981 
                0.228033543934903 81.1764538522802 0.953127022013412 -3.54864269705372 0.19886879988046 88.6186982698037 
                0.0683149964433072 -112.669574713904 0.198868799880369 88.6186982698025 0.977643718905564 5.20305389120355 

2.93066666666667 0.968010248447589 -11.8888086447453 0.238589346287726 79.8662374035583 0.0776903323397245 -112.252073603618 
                0.238589346287807 79.8662374035457 0.949900969172635 -4.60179202117924 0.201896755426897 87.3677940893327 
                0.0776903323397801 -112.252073603536 0.201896755426787 87.3677940893314 0.976322438631438 4.57040789808767 

2.94088888888889 0.963948010893832 -13.184314437729 0.251098085718021 78.4433889757122 0.0880854195742147 -112.267018977358 
                0.251098085718111 78.4433889756996 0.94576317489231 -5.72869932074803 0.206108496795418 86.0135751431756 
                0.0880854195742782 -112.267018977281 0.206108496795302 86.0135751431736 0.974558397831324 3.92833007485789 

2.95111111111111 0.958826798241817 -14.6335855624496 0.265911558255939 76.877605000387  0.0997371616902337 -112.666370712091 
                0.265911558256029 76.8776050003778 0.940476160014255 -6.94993186613459 0.211647308215916 84.5260417195102 
                0.0997371616902966 -112.666370712017 0.2116473082158  84.5260417195086 0.972245700686943 3.2698033277152  

2.96133333333333 0.952304671803283 -16.2737810336864 0.283484433970125 75.1304267832517 0.112949757067126 -113.433341326693 
                0.283484433970096 75.130426783369  0.933704005634446 -8.29091198330477 0.218706251911676 82.8671000867308 
                0.112949757067269 -113.433341326662 0.218706251911481 82.8671000868089 0.969233455361811 2.58711313258302 

2.97155555555555 0.943890024614803 -18.1536794471377 0.30440621754618 73.1519475958495 0.128115197136533 -114.577900929271 
                0.304406217546262 73.1519475958364 0.924965490018226 -9.78360830919132 0.227540851955063 80.9872742894448 
                0.128115197136593 -114.57790092923 0.227540851954962 80.9872742894438 0.965305585339612 1.87175444099823 

2.98177777777778 0.932861782301012 -20.3384206474412 0.329443313783782 70.8760361403851 0.145741652752196 -116.136669234002 
                0.329443313783865 70.8760361403767 0.913559664103966 -11.4687053383504 0.238485104302788 78.8209353736251 
                0.145741652752254 -116.136669233968 0.238485104302706 78.8209353736269 0.960149477007994 1.11458033820423 

2.992            0.918138897957197 -22.9164893104727 0.359591408912555 68.213320575114  0.16649049242475 -118.17678071669 
                0.359591408912624 68.213320575108  0.898445801611952 -13.3981818682853 0.251969528231144 76.2792923813232 
                0.166490492424794 -118.176780716664 0.251969528231077 76.279292381324  0.953307190373182 0.306571890361095 

3.00222222222222 0.898063488974484 -26.0100211060894 0.396131960286472 65.0408481312952 0.191219505428221 -120.804138980246 
                0.396131960286531 65.04084813129   0.878047684204876 -15.6376894685428 0.26853566733447 73.2400603320484 
                0.191219505428257 -120.804138980229 0.268535667334418 73.2400603320493 0.944100385566422 -0.558857065119483 

3.01244444444445 0.870038120363394 -29.7897765328801 0.440666627333406 61.1870674423355 0.221018803277384 -124.177020166419 
                0.440666627333452 61.1870674423316 0.849935443138507 -18.2663470595795 0.288829555394763 69.5324525480046 
                0.22101880327741 -124.177020166408 0.288829555394725 69.5324525480057 0.931520011530311 -1.4798230869789 

3.02266666666667 0.829928832876162 -34.4956881068773 0.495047298788658 56.4112103840451 0.257192906296827 -128.525711362247 
                0.495047298788692 56.4112103840428 0.810326959682622 -21.365873827766 0.313525718788073 64.9165744140117 
                0.257192906296842 -128.525711362241 0.313525718788052 64.9165744140127 0.914086599198804 -2.4309621988007 

3.03288888888889 0.771151515498176 -40.4604553140275 0.560974750557316 50.3795518399095 0.301054216056197 -134.17555866068 
                0.560974750557332 50.3795518399087 0.753404229171693 -24.9723998188921 0.343058962068737 59.05969734992   
                0.301054216056201 -134.175558660677 0.34305896206873 59.0596973499206 0.889762512410077 -3.32746986518829 

3.04311111111111 0.683584226944462 -48.1203904407655 0.6387238989452  42.65419084057   0.353191712231449 -141.557688232832 
                0.638723898945202 42.6541908405704 0.670807875760066 -28.9007525746821 0.376893320098011 51.5250568981588 
                0.353191712231454 -141.557688232832 0.376893320098015 51.5250568981594 0.8562750957937  -3.94500383722836 

3.05333333333333 0.553476351731833 -57.9597346988805 0.724054492000795 32.747491754787  0.411592124389173 -151.154201298239 
                0.724054492000775 32.7474917547878 0.553233356126819 -32.1153309914155 0.41191953436063 41.8263141706122 
                0.411592124389168 -151.154201298241 0.411919534360645 41.8263141706125 0.812966094100715 -3.77695759869005 

3.06355555555555 0.368173917014978 -70.2669755506311 0.803167960767613 20.3596030044065 0.468366873166849 -163.260385517101 
                0.803167960767579 20.3596030044077 0.40146950835728 -30.3549970305883 0.440162185757835 29.665098838959  
                0.468366873166846 -163.260385517106 0.440162185757852 29.6650988389591 0.766086910516409 -1.96065113247568 

3.07377777777778 0.130558845545099 -84.5586333523007 0.851252687407868 5.87538160373256 0.508253236804626 -177.487587521326 
                0.851252687407821 5.87538160373453 0.271626896236874 -9.19811961315682 0.448983724892638 15.4279628664386 
                0.508253236804629 -177.48758752133 0.448983724892657 15.4279628664388 0.734909294711383 2.07629058389609 

3.084            0.126628930902949 79.8910424277898 0.846748828895996 -9.28316360086554 0.516701057882175 167.589384810796 
                0.84674882889594 -9.28316360086344 0.314055009406981 26.8827730959579 0.429399697935957 0.53885899503747 
                0.516701057882184 167.589384810791 0.42939969793597 0.538858995038484 0.740699317511972 7.03332934375807 

3.09422222222222 0.356341374639002 66.0998953562135 0.793178149180491 -23.2657946929129 0.493850524941807 153.823458550486 
                0.793178149180439 -23.26579469291  0.470768202994514 37.4324013631645 0.38632087353572 -13.149739261834 
                0.493850524941825 153.823458550482 0.386320873535725 -13.1497392618323 0.779017081560822 10.4759517476024 

3.10444444444445 0.532353174213509 54.4991674532924 0.714847326438081 -34.9371710377269 0.453423722504421 142.352261939226 
                0.714847326438033 -34.9371710377243 0.614352520565546 35.9584793494315 0.334009778383937 -24.4999118456251 
                0.453423722504453 142.352261939221 0.334009778383932 -24.4999118456231 0.826343951184933 11.7475641493306 

3.11466666666667 0.656184767781485 45.3220084653882 0.634062985662908 -44.1661601376875 0.409128006382787 133.308886281979 
                0.634062985662869 -44.1661601376849 0.719295610425719 31.9681434659345 0.283860004252736 -33.3775391020068 
                0.409128006382824 133.308886281974 0.283860004252725 -33.3775391020045 0.867201121866288 11.6470340295536 

3.12488888888889 0.740846798108513 38.1859095074472 0.561745618411565 -51.3466607277537 0.368222901822912 126.301120544837 
                0.561745618411532 -51.3466607277513 0.791541423944722 27.9274270703447 0.240630215265728 -40.1730460532806 
                0.368222901822956 126.301120544833 0.24063021526571 -40.1730460532775 0.898058482193034 10.9509712114198 

3.13511111111111 0.798977005460607 32.6074644969412 0.500735153662651 -56.9652936222447 0.333017005140455 120.843806653499 
                0.500735153662625 -56.9652936222423 0.840990037009889 24.3897305409965 0.204937113163322 -45.3689953894302 
                0.333017005140498 120.843806653496 0.2049371131633  -45.3689953894258 0.920380627172869 10.0693750658413 

3.14533333333333 0.839661358404476 28.179093369697  0.450378333478246 -61.4309617038432 0.303526629864409 116.529316709972 
                0.450378333478227 -61.4309617038414 0.875352183224237 21.4017112531343 0.175833202732339 -49.3695251263744 
                0.303526629864456 116.529316709969 0.175833202732314 -49.3695251263689 0.936458383874359 9.17554343851666 

3.15555555555556 0.868829076308906 24.5969301492442 0.409011655757183 -65.048216300677 0.279008426505073 113.054216841506 
                0.409011655757168 -65.0482163006752 0.8997702445598  18.8874267069309 0.152061096216999 -52.4735609201119 
                0.279008426505122 113.054216841503 0.152061096216973 -52.4735609201053 0.94817284471259 8.33231671780953 

3.16577777777778 0.890254245122735 21.6432629329973 0.374933252657159 -68.0351865981319 0.258597309440088 110.201362521992 
                0.374933252657149 -68.0351865981304 0.917535715165373 16.7554598372709 0.132487860180656 -54.8925499231076 
                0.258597309440135 110.20136252199  0.13248786018063 -54.8925499230995 0.956856525422661 7.55664270128389 

3.176            0.906350691447144 19.1631141774106 0.346693863299688 -70.5471360839246 0.241519886942771 107.816362505703 
                0.346693863299683 -70.5471360839233 0.930752585066728 14.9262550258655 0.116201905152673 -56.7737669390435 
                0.241519886942817 107.816362505701 0.116201905152647 -56.7737669390346 0.963413341092044 6.84777138509593 

3.18622222222222 0.918688816850601 17.0452925759103 0.323136619412086 -72.6954698337196 0.227142223655801 105.78858844518  
                0.323136619412083 -72.6954698337185 0.940785147222841 13.3363651464069 0.102498885807642 -58.2189985569096 
                0.227142223655845 105.788588445178 0.102498885807617 -58.2189985568991 0.9684525744356  6.19890521845298 

3.19644444444445 0.928312562908651 15.2088994560641 0.303359894587342 -74.5612568812424 0.214961664747364 104.037666633721 
                0.303359894587342 -74.5612568812415 0.948536080294204 11.9365567743756 0.0908412973896287 -59.2976444793999 
                0.214961664747404 104.037666633719 0.0908412973896049 -59.2976444793886 0.97238847200719 5.60184869454041 

3.20666666666667 0.935931659656968 13.5941086952982 0.28666562024744 -76.2044656537595 0.204584139672768 102.504254428595 
                0.286665620247443 -76.2044656537591 0.954615752664063 10.6888213561105 0.0808189455311285 -60.055399177969 
                0.204584139672805 102.504254428593 0.0808189455311061 -60.0553991779575 0.97550685692173 5.048758873822   

3.21688888888889 0.942039199434111 12.1559249254363 0.272512598308509 -77.6702146257228 0.195701108081695 101.143799626701 
                0.272512598308513 -77.6702146257221 0.959445761268501 9.56368224451459 0.0721170248635255 -60.5197671467397 
                0.19570110808173 101.143799626699 0.0721170248635053 -60.5197671467275 0.978008289008759 4.5327103929675  

3.22711111111111 0.946984737614324 10.8599381970024 0.260479164923398 -78.9930231291247 0.188070169918055 99.9222981921487 
                0.260479164923403 -78.9930231291247 0.963323181750361 8.53807073495794 0.064492041976694 -60.7033277416939 
                0.188070169918086 99.9222981921475 0.064492041976677 -60.7033277416799 0.980035914121273 4.04778880215854 

3.23733333333333 0.951020645581121 9.67940436562139 0.250234709155834 -80.1997345685481 0.181499843100958 98.813378358921  
                0.250234709155838 -80.1997345685487 0.966461188160739 7.59372735207207 0.0577541564818451 -60.6053243399128 
                0.181499843100986 98.8133783589198 0.0577541564818303 -60.6053243398987 0.981693573659981 3.58900962403476 

3.24755555555556 0.954332109419659 8.59320892854258 0.241518349704311 -81.3115550960944 0.175837948670335 97.7962682724192 
                0.241518349704316 -81.311555096094 0.969015247156784 6.71601738223156 0.0517543949332774 -60.211883389788 
                0.175837948670359 97.7962682724168 0.0517543949332642 -60.2118833897748 0.983057734388214 3.15218570055528 

3.25777777777778 0.957056935279797 7.58442522796816 0.234123062870217 -82.3454972594923 0.170962845049768 96.8543578348564 
                0.234123062870221 -82.3454972594925 0.971100343454299 5.89305511988105 0.0463754859133441 -59.4949616057918 
                0.17096284504979 96.8543578348552 0.0463754859133338 -59.4949616057782 0.984185466486603 2.73379143981638 

3.268            0.959298872744925 6.6392774219517  0.227883862913835 -83.3154184712557 0.166776829113085 95.974165052844  
                0.227883862913839 -83.3154184712561 0.972802519372554 5.11505318721642 0.0415254113771107 -58.409953955623 
                0.166776829113103 95.9741650528441 0.0415254113771028 -58.4099539556089 0.985119862193115 2.33084131579943 

3.27822222222222 0.961136732908606 5.74638269879004 0.222668971365457 -84.232779974103 0.16320116051471 95.1445813328087 
                0.22266897136546 -84.2327799741038 0.974186738065888 4.37383479416468 0.0371330754860992 -56.8917689648273 
                0.163201160514724 95.144581332808  0.0371330754860928 -56.8917689648162 0.985893771767564 1.94078700605234 

3.28844444444444 0.962630723974725 4.89618859082508 0.218373192690704 -85.1072105436264 0.160172297640643 94.3563115842126 
                0.218373192690705 -85.1072105436271 0.97530232305481 3.66246393209311 0.0331457499486469 -54.8491381025844 
                0.160172297640656 94.3563115842126 0.0331457499486437 -54.8491381025736 0.986532415355393 1.56143246126045 

3.29866666666667 0.96382690969771 4.08054817991003 0.214912928479481 -85.9469322018577 0.157639040497708 93.6014519420654 
                0.214912928479483 -85.9469322018587 0.976186768734965 2.97496114581322 0.0295281778259424 -52.1571427288675 
                0.157639040497716 93.6014519420665 0.0295281778259402 -52.157142728861 0.987055231423701 1.19086447581913 

3.30888888888889 0.964760376372043 3.29239370140554 0.212222420471991 -86.7590874830431 0.15556035733652 92.8731656400859 
                0.212222420471996 -86.7590874830389 0.976868434360668 2.30608157956223 0.0262634061926503 -48.6488872246732 
                0.15556035733652 92.8731656400801 0.0262634061926506 -48.6488872246666 0.987477197851524 0.827395998190556 

3.31911111111111 0.96545749283993 2.52548082871176 0.210250927466166 -87.5499960079713 0.15390373221996 92.1654293411381 
                0.210250927466314 -87.5499960079226 0.977368456771751 1.6511383769991  0.0233555075002188 -44.1100546460399 
                0.153903732219762 92.1654293410871 0.0233555075002402 -44.1100546460377 0.987809782185   0.469519622393298 

3.32933333333333 0.965937518708388 1.77418382315872 0.208960624199823 -88.3253602154411 0.152643915118069 91.4728301313391 
                0.208960624199821 -88.3253602154387 0.977702103579786 1.00585898823763 0.0208340884835198 -38.2869433929733 
                0.152643915118071 91.4728301313333 0.0208340884835195 -38.2869433929715 0.988061625928323 0.115869066758383 

3.33955555555555 0.966213731083518 1.03332707409283 0.208325070799606 -89.0904347594274 0.151761988731743 90.7903987206565 
                0.208325070799606 -89.0904347594251 0.977879714161876 0.366265054108296 0.0187592153196043 -30.9315666381692 
                0.15176198873174 90.7903987206562 0.0187592153196045 -30.9315666381748 0.988239033620756 -0.234813179611905 

3.34977777777778 0.966294182933616 0.29804216641267 0.208328146116876 -89.8501704676679 0.15124469043115 90.1134679969874 
                0.208328146116876 -89.8501704676686 0.977907325810003 -0.271431310242522 0.0172220693308907 -21.9194286471129 
                0.151244690431143 90.1134679969881 0.0172220693308904 -21.9194286471214 0.988346314419586 -0.583703534990652 

3.36             0.966182166319608 -0.436357967918952 0.208963372111166 -90.6093413459657 0.15108394597125 89.4375484954192 
                0.208963372111164 -90.6093413459655 0.977787047572235 -0.910920556383041 0.0163318850489319 -11.4470145174248 
                0.151083945971245 89.437548495419  0.0163318850489302 -11.4470145174364 0.988386007931985 -0.931921555375795 

3.37022222222222 0.965876424552947 -1.17449469046716 0.210233583015632 -91.372661550425 0.151276585807923 88.758213900113  
                0.210233583015629 -91.3726615504244 0.977517218835687 -1.55588285853252 0.0161814682285173 -0.186262587046169 
                0.151276585807916 88.7582139001131 0.0161814682285151 -0.186262587060445 0.988359014518214 -1.28055174113498 

3.38044444444445 0.965371134416481 -1.92103503702169 0.212150914966037 -92.1448983349296 0.151824226298574 88.0709906134099 
                0.212150914966033 -92.1448983349294 0.977092369607864 -2.2100736480912 0.0168043804527989 10.850318270774  
                0.151824226298568 88.070990613411  0.0168043804527951 10.850318270761  0.98826464149623 -1.63066379478905 

3.39066666666667 0.964655659707869 -2.68080437386957 0.214737111196887 -92.9309865850024 0.152733307861069 87.3712458230364 
                0.214737111196884 -92.9309865850019 0.976502981905229 -2.87741160657574 0.0181599636340323 20.7480672360278 
                0.152733307861062 87.3712458230375 0.0181599636340276 20.7480672360175 0.988100569393897 -1.98333210134511 

3.40088888888889 0.963714057933446 -3.45890591106238 0.218024156541782 -93.7361506191409 0.154015291142897 86.6540684305803 
                0.218024156541778 -93.7361506191408 0.975735034321766 -3.56207333012717 0.0201615353922341 29.0346652946873 
                0.154015291142891 86.6540684305813 0.0201615353922285 29.0346652946813 0.987862735676336 -2.33965513660078 

3.41111111111111 0.962524300512938 -4.26085315746289 0.222055274420792 -94.5660394759495 0.155687021151807 85.9141366705404 
                0.222055274420789 -94.5660394759493 0.974769292474876 -4.26859933871573 0.0227190821361874 35.6704111340259 
                0.1556870211518  85.9141366705416 0.0227190821361821 35.6704111340225 0.98754512638667 -2.700775471689  

3.42133333333333 0.961057140555953 -5.09272241665115 0.226886341378841 -95.4268829680578 0.15777127880755 85.145565191293  
                0.226886341378838 -95.426882968057 0.973580284039189 -5.00201693434132 0.0257661935111288 40.8493491115135 
                0.157771278807544 85.145565191295  0.0257661935111243 40.8493491115104 0.987139458008498 -3.06790102340486 

3.43155555555555 0.959274527527069 -5.96133406328983 0.232587800348832 -96.3256774942916 0.160297550183928 84.3417226652281 
                0.232587800348828 -96.3256774942912 0.972134865119563 -5.76798669967475 0.0292678324342666 44.8295013448098 
                0.160297550183923 84.3417226652293 0.029267832434262 44.8295013448085 0.986634721539204 -3.44232818412641 

3.44177777777778 0.957127419818159 -6.8744738001481 0.239247186246022 -97.2704131646498 0.163303056542827 83.4950084404003 
                0.23924718624602 -97.2704131646499 0.970390239990237 -6.57298130626637 0.0332184872916563 47.8489865987804 
                0.163303056542823 83.4950084404018 0.0332184872916529 47.8489865987792 0.986016546849202 -3.82546742593819 

3.452            0.95455277676839 -7.84116867790282 0.246972418737628 -98.2703575272073 0.166834103853069 82.5965730219088 
                0.246972418737626 -98.2703575272071 0.968291231541923 -7.4245079685524 0.0376382645323404 50.099884198961  
                0.166834103853066 82.5965730219097 0.0376382645323373 50.0998841989619 0.98526632588569 -4.21887186199044 

3.46222222222222 0.951469409257512 -8.87203781699087 0.25589606991493 -99.336416574812 0.170947829472994 81.6359617955312 
                0.255896069914929 -99.3364165748122 0.965766503986888 -8.33138961874874 0.0425701050871013 51.7275557140686 
                0.170947829472992 81.6359617955322 0.0425701050870991 51.7275557140694 0.984360005192557 -4.62426897119079 

3.47244444444445 0.947772214137788 -9.97974517697926 0.26618088198429 -100.481601474135 0.175714446269843 80.6006536578967 
                0.26618088198429 -100.481601474135 0.962723294854607 -9.30412507397933 0.0480789466258179 52.8378527865844 
                0.175714446269843 80.6006536578965 0.0480789466258175 52.8378527865838 0.983266417099643 -5.04359507093903 

3.48266666666667 0.943324082890213 -11.1795923632515 0.278026893761929 -101.721640671595 0.181220109642471 79.4754550258985 
                0.278026893761929 -101.721640671595 0.959039991805461 -10.3553556180825 0.0542528823581487 53.5050756932813 
                0.181220109642473 79.4754550258981 0.0542528823581496 53.5050756932808 0.981944958060896 -5.47903080918521 

3.49288888888889 0.937944411242363 -12.4903047712509 0.291680632454069 -103.075793262961 0.187570556627024 78.2416934914446 
                0.291680632454071 -103.075793262961 0.954555545491011 -11.5004750959337 0.0612062779666222 53.77841253971   
                0.187570556627027 78.2416934914439 0.0612062779666246 53.778412539709  0.980342331961331 -5.93303326130988 

3.50311111111111 0.931392566531731 -13.9350863418551 0.30744692543893 -104.567943026417 0.194895677171824 76.8761319065923 
                0.307446925438933 -104.567943026418 0.949054167921876 -12.7584332722953 0.0690849338346112 53.6864242726988 
                0.194895677171828 76.8761319065911 0.069084933834615 53.6864242726976 0.978387941273412 -6.40835481482179 

3.51333333333333 0.923343767610584 -15.5430494434514 0.32570394370062 -106.228086415787 0.203355147865006 75.3494898275048 
                0.325703943700624 -106.228086415788 0.942242904988361 -14.1527975828792 0.0780735431363708 53.2396856842186 
                0.203355147865012 75.3494898275038 0.0780735431363756 53.2396856842178 0.975987310328807 -6.90802821983359 

3.52355555555555 0.913353397079622 -17.3511697606538 0.346921994107487 -108.094375921113 0.213145122642646 73.6244111858657 
                0.346921994107494 -108.094375921114 0.933718296746117 -15.713153838828 0.0884058185551223 52.4317541848712 
                0.213145122642654 73.6244111858638 0.0884058185551288 52.43175418487   0.973012641637926 -7.43527555048721 

3.53377777777778 0.900803489051743 -19.4069729744391 0.371686061381237 -110.215945952156 0.224505584639941 71.6526513723075 
                0.371686061381244 -110.215945952157 0.922916148960037 -17.4769322603183 0.100377639820218 51.2385357264418 
                0.22450558463995 71.6526513723053 0.100377639820226 51.23853572644   0.969289231774623 -7.99325530340352 

3.544            0.884821590714978 -21.7722248302277 0.400720520708722 -112.656830500424 0.23772698488502 69.3711748982898 
                0.40072052070873 -112.656830500424 0.909035016665001 -19.4917123509568 0.114363167001169 49.6159678350489 
                0.23772698488503 69.3711748982877 0.114363167001178 49.6159678350474 0.964576073596527 -8.58447383585387 

3.55422222222222 0.864156960770065 -24.5279394433441 0.434910313056296 -115.501360845042 0.253152490330527 66.6967758980054 
                0.434910313056308 -115.501360845043 0.890918933684792 -21.8179067883656 0.130832462906256 47.4957989925168 
                0.253152490330538 66.6967758980028 0.130832462906267 47.495798992515  0.95853886370629 -9.20950900521282 

3.56444444444445 0.836992374764692 -27.780941455536 0.475302855975399 -118.861431430837 0.271166952283045 63.5188340041415 
                0.475302855975412 -118.861431430838 0.866878463003479 -24.5312249275189 0.150365316846072 44.7791957789102 
                0.271166952283056 63.5188340041383 0.150365316846084 44.7791957789082 0.950714912041137 -9.86433603253261 

3.57466666666667 0.800664966016454 -31.6717128014192 0.523051927056985 -122.885707089011 0.292152383841284 59.6901332647665 
                0.523051927057   -122.885707089012 0.834424699992922 -27.7228455858631 0.173646359679018 41.3281892082616 
                0.292152383841297 59.6901332647636 0.173646359679029 41.32818920826   0.940475431916329 -10.5348541608277 

3.58488888888889 0.751280664241476 -36.3814725161562 0.579215284886138 -127.769567354395 0.31636675598872 55.0169494144059 
                0.579215284886154 -127.769567354396 0.789903168203055 -31.4910226547675 0.201404445492998 36.9562243568097 
                0.316366755988733 55.0169494144025 0.201404445493012 36.9562243568081 0.927010498846002 -11.1860169307668 

3.59511111111111 0.683279856631831 -42.1310968043895 0.64422475036825 -133.760774091275 0.343662922148553 49.2534206563654 
                0.644224750368267 -133.760774091275 0.72809303740307 -35.9057274072375 0.234214111041613 31.4228695866414 
                0.343662922148566 49.2534206563625 0.234214111041626 31.4228695866404 0.909417241148547 -11.7415647356016 

3.60533333333333 0.589265253351507 -49.1496023295541 0.716726429521642 -141.146519293377 0.372922156035463 42.1145468606349 
                0.716726429521661 -141.146519293378 0.642118791495624 -40.8913060351468 0.272007380574906 24.4470588942726 
                0.372922156035477 42.1145468606317 0.272007380574919 24.4470588942714 0.887097094313379 -12.0517952380263 

3.61555555555556 0.461023883828684 -57.5467433404831 0.79154510240276 -150.190489781651 0.401141647533814 33.3391827601386 
                0.791545102402774 -150.190489781651 0.524794724246871 -45.8460266295638 0.313126404054638 15.770252561031  
                0.401141647533824 33.3391827601357 0.313126404054649 15.7702525610304 0.860835325408948 -11.8638438627595 

3.62577777777778 0.293492354091724 -66.8221443069511 0.857472622044945 -160.977334380787 0.422615744175447 22.845642595236  
                0.857472622044956 -160.977334380787 0.37424649068444 -48.2351284080783 0.353102441860918 5.31214643825842 
                0.422615744175455 22.8456425952338 0.353102441860926 5.31214643825833 0.834694439737419 -10.8682111509222 

3.636            0.0929812238390284 -70.6578150684706 0.898125144994627 -173.177624823574 0.429798086589398 10.9668289755305 
                0.898125144994635 -173.177624823574 0.213338632441331 -36.470090905658 0.384523682253882 -6.59414971690806 
                0.429798086589404 10.9668289755284 0.384523682253887 -6.59414971690751 0.816954882206675 -8.95955020391161 

3.64622222222222 0.125816958430748 75.9378736493293 0.899951858383116 174.070478031337 0.417440709040223 -1.43132024951192 
                0.899951858383121 174.070478031337 0.173101828347461 17.2975149732438 0.400152982764762 -19.0836678159532 
                0.417440709040225 -1.43132024951333 0.400152982764761 -19.0836678159524 0.815855897092409 -6.60358153060537 

3.65644444444445 0.325006607450679 69.3323426848618 0.862816203229653 161.887192517891 0.387192685933654 -13.2237199946875 
                0.862816203229647 161.887192517892 0.311656416908854 41.9428651481865 0.398017439827483 -31.0335246428368 
                0.387192685933653 -13.2237199946881 0.398017439827478 -31.0335246428349 0.831663251654658 -4.65280231983501 

3.66666666666667 0.489699978912551 59.8645413378967 0.800026125365824 151.125300571732 0.34662775912882 -23.5517693402266 
                0.800026125365812 151.125300571733 0.462203064367163 42.6044145047691 0.382525148001781 -41.5886662983778 
                0.346627759128821 -23.5517693402266 0.382525148001775 -41.5886662983754 0.856459777104907 -3.60613346371224 

3.67688888888889 0.614801633978782 51.4400760266158 0.72782429443992 142.104287953006 0.303791087456408 -32.0889729069542 
                0.727824294439902 142.104287953007 0.58342281030669 38.6580541155263 0.360400230644458 -50.4276705001024 
                0.303791087456405 -32.0889729069524 0.360400230644446 -50.4276705000995 0.881942249398839 -3.38897715707303 

3.68711111111111 0.705882084091881 44.4272601602275 0.65740903446936 134.733895714351 0.263707994157269 -38.9170776412624 
                0.657409034469336 134.733895714353 0.674041068862798 34.1154749140367 0.336868809475738 -57.6391485125619 
                0.263707994157263 -38.9170776412589 0.336868809475718 -57.6391485125583 0.903867716087884 -3.70485376135314 

3.69733333333333 0.771336621369041 38.6908874944354 0.59403205112092 128.748753436555 0.228393770456309 -44.2910274451926 
                0.594032051120892 128.748753436557 0.74029913819144 29.9281079588714 0.314772443708009 -63.4870740412983 
                0.228393770456307 -44.2910274451884 0.314772443707993 -63.4870740412945 0.921278368834589 -4.30248378535968 

3.70755555555556 0.818577415647567 33.9952245079042 0.539149765464869 123.861892071233 0.198107344445202 -48.484899112975 
                0.539149765464836 123.861892071236 0.788762724840628 26.2853826687832 0.295244849064995 -68.2572395963046 
                0.198107344445198 -48.4848991129707 0.295244849064975 -68.2572395962995 0.934656676900694 -5.02987742408581 
