! Touchstone file exported from HFSS 2020.2.0
!        File:           C:/Users/JH218595/Documents/Modeling/skrf_current_voltage_benchmark/current_voltage_benchmark.aedt
!        Generated:      3:05:47  ao%xFBt 06, 2020
!        Design:         Coaxial T
!        Project:        current_voltage_benchmark
!        Setup:          Setup1
!        Solution:       LastAdaptive
!
! Variables:
!        L = 3000mm
!        Pin = 500kW
!        Pref = 300kW
!
!Data is not renormalized
# GHZ S MA
! Terminal data exported
! Port[1] = 1
! Port[2] = 2
! Port[3] = 3
0.01                           0.320842043701007 148.551878810503 0.810274252637408 -35.7137843917257 0.490155334795591 -22.1576640369248 
                               0.810274252637407 -35.7137843917257 0.0366505674584357 167.915339991294 0.58467654397948 -23.6351577265636 
                               0.490155334795591 -22.1576640369248 0.58467654397948 -23.6351577265636 0.646356331452381 171.311060820221 
! Gamma         4.39118159915976E-05 0.209628424919554 5.5202640364583E-05 0.209639719464457 2.85609462621175E-05 0.209613068720395 
! Port Impedance         42.5668754272387 -0.00890159842753428 29.7768812434469 -0.00783825021061899 81.5297414141364 -0.011075836989305 
0.05                           0.28562283467114 22.5085051437231 0.820259159107778 -178.777398058005 0.494976553183397 -110.994402953149 
                               0.820259159107778 -178.777398058005 0.0954574908029948 42.8241589414672 0.563437388934213 -117.797291852353 
                               0.494976553183397 -110.994402953149 0.563437388934213 -117.797291852353 0.661259050076044 136.19010588335  
! Gamma         9.8203337333854E-05 1.048020725275   0.000123454951206083 1.04804598055049 6.38711775867175E-05 1.04798638779204 
! Port Impedance         42.5619492690417 -0.00397693092854242 29.7725447770903 -0.00350343494173246 81.5236181381169 -0.00495377062966894 
0.1                            0.178288179734708 -135.564599445407 0.843748941011795 1.2586296960786  0.505424168088701 136.765848514915 
                               0.843748941011795 1.2586296960786  0.181618968248254 -155.946119519778 0.504209459036608 126.929755474624 
                               0.505424168088701 136.765848514915 0.504209459036608 126.929755474624 0.699967464629951 90.4862842143751 
! Gamma         0.000138885068213894 2.09598391796435 0.000174597755567374 2.09601963430039 9.03298831431644E-05 2.09593535743367 
! Port Impedance         42.5607745205549 -0.00280236845949581 29.7715131160175 -0.00247198004554454 81.5221674134439 -0.00350319857488833 
