! Touchstone file from project test_multiport
! Exported from HFSS 2019.2.0
!Data is not renormalized
# GHZ S MA
! Modal data exported
! Port[1] = 1:1
! Port[2] = 2:1
! Port[3] = 3:1
! Port[4] = 4:1
! Port[5] = 5:1
! Port[6] = 6:1
! Port[7] = 7:1
! Port[8] = 8:1
! Port[9] = 9:1
! Port[10] = 10:1
! Port[11] = 11:1
0.9                            0.000240908745187229 -179.99999999998 3.09338077270298E-06 180              1.35921815573518E-08 180              6.89100431531075E-07 180              
                3.70303695755214E-08 180              2.0341338179213E-06 -4.50541489822539E-15 7.79798480909358E-08 -3.54894706435036E-15 2.80718380731448E-10 180              
                4.07576560888271E-07 180              4.60354630223112E-08 180              1.594755519345E-06 180              
                3.09338077270298E-06 180              0.000447202642645417 -180             2.53391591295853E-08 -180             3.80474977350808E-08 -180             
                1.08710473483556E-07 -180             5.71450316964294E-07 6.1049007786056E-20 4.15055494924757E-08 2.66619701611513E-20 1.09952287014893E-10 -180             
                1.89370708353726E-07 -180             1.33762084610495E-07 -180             5.20233579370278E-07 -180             
                1.35921815573518E-08 180              2.53391591295853E-08 -180             0.000423120224142148 -180             6.91020657916045E-09 -5.51194356123913E-21 
                4.02788935360615E-09 -180             2.82592149714691E-09 4.40907314019202E-20 4.22110603465208E-10 8.91350548522776E-21 9.49113845728552E-13 -180             
                1.03214383103814E-09 -180             2.73460436221046E-09 -180             3.03913397642967E-09 -180             
                6.89100431531074E-07 180              3.80474977350809E-08 -180             6.91020657916044E-09 -5.7393971993755E-21 4.92461681107503E-05 -3.64845294924674E-23 
                2.72219053948288E-07 -180             2.4796545613641E-06 180              1.50442058902832E-07 1.16691522214344E-21 1.62330221332819E-10 -180             
                7.71511298237234E-08 -180             3.3192271114172E-08 -3.46850167405248E-21 2.9837051058686E-07 -180             
                3.70303695755215E-08 -180             1.08710473483556E-07 180              4.02788935360615E-09 180              2.72219053948287E-07 180              
                0.00107921336754202 180              4.4030247917837E-08 -2.13508491638193E-20 1.44754881909481E-09 -180             1.06477852096093E-12 180              
                1.96344741720489E-09 180              5.77266506501506E-09 3.86112016718862E-21 2.64792303035892E-08 2.97926922118965E-20 
                2.03413381792131E-06 -1.17860655898947E-14 5.71450316964295E-07 1.23760437520427E-19 2.82592149714691E-09 1.13016010193374E-19 2.4796545613641E-06 180              
                4.40302479178369E-08 1.85792337004948E-20 0.000193958160508823 -180             5.7799027980549E-08 -2.90461432618676E-20 7.17098792117392E-10 180              
                1.00181263082867E-07 9.46745587195466E-20 2.87460877934213E-08 180              3.5666382780387E-07 180              
                7.79798480909359E-08 -3.97307720605008E-15 4.15055494924758E-08 1.99032730736923E-20 4.22110603465209E-10 9.38217669493867E-21 1.50442058902832E-07 1.17364463023996E-21 
                1.44754881909481E-09 180              5.77990279805489E-08 -1.02248357701698E-20 0.000558458354935953 -180             2.13378881793936E-11 180              
                1.21893784722729E-08 9.45255930700798E-21 2.03559999332259E-09 180              3.13572763472255E-07 180              
                2.80718380731448E-10 180              1.09952287014893E-10 -180             9.4911384572855E-13 -180             1.62330221332819E-10 -180             
                1.06477852096093E-12 -180             7.17098792117392E-10 180              2.13378881793937E-11 180              0.00141991465178726 -180             
                1.3060103058435E-11 -180             3.60509763374953E-12 -6.65549504698116E-20 7.22327884530441E-11 -1.13312131486902E-19 
                4.0757656088827E-07 -180             1.89370708353725E-07 180              1.03214383103814E-09 180              7.71511298237233E-08 180              
                1.9634474172049E-09 180              1.00181263082867E-07 -2.94636943818918E-20 1.21893784722729E-08 -1.17776510265194E-20 1.3060103058435E-11 180              
                0.00205783910134083 180              2.76442063699604E-09 180              3.19368387547386E-07 180              
                4.60354630223113E-08 -180             1.33762084610495E-07 180              2.73460436221045E-09 180              3.31922711141718E-08 4.68928082355762E-21 
                5.77266506501505E-09 1.51989962197084E-21 2.87460877934213E-08 -180             2.03559999332258E-09 -180             3.60509763374952E-12 1.58802704895839E-20 
                2.76442063699603E-09 180              0.00100174198686043 180              5.40113704364788E-08 180              
                1.59475551934501E-06 180              5.20233579370279E-07 -180             3.03913397642968E-09 -180             2.9837051058686E-07 -180             
                2.64792303035892E-08 -1.81519087987678E-21 3.56663827803869E-07 180              3.13572763472255E-07 180              7.22327884530442E-11 -9.48662715149371E-21 
                3.19368387547385E-07 -180             5.40113704364788E-08 -180             0.000246776379333125 -180             
! Gamma         !               59.9338048536055 0                76.2417350292416 0                59.933951966078  0                103.007100814869 0                
!               76.2411070358852 0                76.2412733927572 0                76.2409373262838 0                103.007334419832 0                
!               103.007661408918 0                76.241299958214  0                76.2412214280794 0                
! Port Impedance0                29.2421100999044 0                57.3782667744546 0                58.4259364639759 0                28.3632907634212 
!               0                57.4821320011557 0                28.742024722154  0                57.4275440138726 0                56.7064361220132 
!               0                56.6797186876328 0                57.4649495918211 0                28.7382532308511 

0.95                           0.000236399176025914 -179.999999999966 3.2205600437676E-06 180              1.51655451322264E-08 180              7.64565552421327E-07 180              
                4.13893032680739E-08 180              2.20204937230025E-06 -8.17368976305125E-15 8.49440187787575E-08 -8.50814320739855E-15 3.01974214384076E-10 180              
                4.03803836294911E-07 180              5.13326435288792E-08 -180             1.73064716457205E-06 -180             
                3.2205600437676E-06 180              0.000445034452917326 180              2.70396257569193E-08 180              4.11942214298001E-08 180              
                1.17456409626448E-07 180              6.19837472543069E-07 -3.16465446694842E-15 4.54561499992167E-08 -2.94640310692739E-15 1.19028817784004E-10 180              
                1.97074640043094E-07 -180             1.43901927175141E-07 -180             5.65992399043314E-07 180              
                1.51655451322263E-08 180              2.70396257569194E-08 -180             0.00042239344346795 180              7.79306919381324E-09 -1.31149639157328E-20 
                4.48863700756011E-09 180              3.25393915309754E-09 5.79724895773627E-20 4.89206797673292E-10 1.78454523684917E-20 1.08960533797538E-12 -180             
                1.14953615530442E-09 -180             3.06126933214961E-09 -180             3.49556593537906E-09 -180             
                7.64565552421327E-07 180              4.11942214298E-08 -180             7.79306919381324E-09 -3.71710229609826E-21 5.94894553020975E-05 -1.13978497169915E-22 
                2.89809068105463E-07 180              2.62435807040634E-06 180              1.63064248355226E-07 5.50350267092397E-21 1.76317918666129E-10 -180             
                8.40684327040575E-08 -180             3.6712915546261E-08 5.35005912726816E-15 3.2762253507127E-07 -180             
                4.13893032680739E-08 180              1.17456409626448E-07 180              4.4886370075601E-09 180              2.89809068105462E-07 180              
                0.00107058040824559 -179.999999999993 4.70055533210654E-08 -8.86475398538519E-15 1.62138156647193E-09 180              1.1250306918148E-12 180              
                2.15383534027162E-09 -180             6.38073981886299E-09 -1.90989434558332E-15 2.96023330422994E-08 -2.04102981098033E-15 
                2.20204937230024E-06 -2.07813123264597E-14 6.19837472543068E-07 -5.62015026661185E-15 3.25393915309753E-09 2.51264461893796E-19 2.62435807040635E-06 180              
                4.70055533210654E-08 -1.75610238226733E-14 0.000192471338387734 -180             6.27887819495905E-08 -7.91202710578355E-20 7.61856021705489E-10 180              
                1.07377659917104E-07 1.79481751075445E-14 3.21786221267648E-08 -180             3.86705404017394E-07 180              
                8.49440187787576E-08 -2.38087077548854E-14 4.54561499992167E-08 -7.61470587559671E-15 4.89206797673292E-10 9.65372028406448E-20 1.63064248355226E-07 1.21186515927386E-20 
                1.62138156647192E-09 180              6.27887819495905E-08 -6.85662724803756E-20 0.000555836108218077 180              2.32363341181261E-11 180              
                1.28977331661458E-08 5.02275699760558E-15 2.25120964635648E-09 -180             3.34111410386123E-07 -180             
                3.01974214384076E-10 180              1.19028817784005E-10 180              1.08960533797538E-12 -180             1.76317918666129E-10 -180             
                1.1250306918148E-12 180              7.61856021705489E-10 180              2.32363341181261E-11 180              0.00141554278477129 -180             
                1.36546769290061E-11 -180             4.03150989735339E-12 1.30470609164711E-15 7.81524118073443E-11 9.20965330770918E-15 
                4.03803836294912E-07 -180             1.97074640043094E-07 180              1.14953615530442E-09 -180             8.40684327040575E-08 -180             
                2.15383534027162E-09 -180             1.07377659917104E-07 8.45001170712503E-16 1.28977331661458E-08 1.84562393440691E-15 1.36546769290061E-11 -180             
                0.00205339352911071 179.999999999997 3.0401065754036E-09 180              3.36699268356111E-07 180              
                5.13326435288791E-08 180              1.43901927175141E-07 -180             3.06126933214961E-09 -180             3.67129155462611E-08 3.632444548061E-15 
                6.38073981886299E-09 -2.95334393333448E-15 3.21786221267649E-08 -180             2.25120964635648E-09 -180             4.03150989735338E-12 4.22487146236162E-15 
                3.04010657540361E-09 -180             0.000994075771857839 179.999999999998 5.77361441159588E-08 -180             
                1.73064716457205E-06 180              5.65992399043313E-07 180              3.49556593537905E-09 -180             3.2762253507127E-07 -180             
                2.96023330422994E-08 -1.52133717410235E-14 3.86705404017394E-07 -180             3.34111410386122E-07 -180             7.81524118073441E-11 2.1551908075886E-15 
                3.36699268356112E-07 -180             5.77361441159589E-08 -180             0.000244549816927786 179.999999999996 
! Gamma         !               59.5938732206317 0                75.9748045175223 0                59.5940211722515 0                102.809686214341 0                
!               75.9741743177505 0                75.9743412591106 0                75.9740040118788 0                102.80992026787  0                
!               102.810247884833 0                75.9743679179037 0                75.9742891118572 0                
! Port Impedance0                31.0427380284542 0                60.7787263134621 0                62.0235981239402 0                29.9965170750081 
!               0                60.8887607415251 0                30.4453976987181 0                60.8309184130185 0                59.9717277416615 
!               0                59.9434715099408 0                60.8705599522862 0                30.4413979596102 

1                              0.000231333669829748 180              3.35809423511441E-06 -180             1.70320076083622E-08 -180             8.5423125672593E-07 -180             
                4.66280512971562E-08 -180             2.39651519263629E-06 -1.86923168119364E-20 9.30280623344919E-08 3.40377407602569E-16 3.26254402966925E-10 180              
                3.97565802536121E-07 180              5.76794675391684E-08 180              1.88846322023974E-06 180              
                3.35809423511439E-06 -180             0.000442717065384124 179.99999999999  2.89251040342379E-08 -180             4.48780177039389E-08 -180             
                1.27587254559486E-07 -180             6.76063551877187E-07 6.19947144677336E-15 5.00846870780648E-08 3.59555314268761E-15 1.29515028543382E-10 -180             
                2.05415737023277E-07 -180             1.55599019052822E-07 -180             6.19247737164393E-07 -180             
                1.70320076083623E-08 -180             2.89251040342379E-08 -180             0.000421752988872703 179.999999999992 8.86079659169005E-09 1.26400623957709E-14 
                5.03677678839209E-09 -180             3.78191890840512E-09 3.2122784027725E-15 5.72502475938116E-10 6.19344089593339E-15 1.26216363548138E-12 -180             
                1.28859384943104E-09 -180             3.45208423424387E-09 180              4.0582462816234E-09 -180             
                8.54231256725933E-07 -180             4.48780177039392E-08 -180             8.86079659169005E-09 1.53394951115754E-14 7.05057755274741E-05 1.56170909292832E-10 
                3.09808751986103E-07 -180             2.78829955052672E-06 -180             1.77715754958874E-07 3.33575419153077E-15 1.92480343446201E-10 -180             
                9.21373498159188E-08 -180             4.08896134900558E-08 1.02262360667102E-14 3.62066373999574E-07 -180             
                4.66280512971562E-08 180              1.27587254559487E-07 -180             5.03677678839207E-09 -180             3.09808751986103E-07 -180             
                0.00106152075560551 -179.999999999998 5.03579691588697E-08 -2.95416440686052E-15 1.83106303726535E-09 180              1.18833228953263E-12 180              
                2.38150438969561E-09 180              7.09884566915962E-09 -4.66527329911839E-15 3.33513094434016E-08 -3.43748343841301E-15 
                2.39651519263629E-06 1.85491501536282E-20 6.76063551877189E-07 3.20440453384003E-15 3.78191890840513E-09 -2.21920752338449E-15 2.78829955052673E-06 -180             
                5.03579691588696E-08 -1.86782840635156E-15 0.000190855409260116 180              6.8591069133846E-08 7.1378084058417E-16 8.12399048334078E-10 180              
                1.15640985692694E-07 4.61101502300439E-20 3.62988668667072E-08 180              4.21518149001742E-07 180              
                9.3028062334492E-08 -3.96980698205791E-16 5.00846870780649E-08 1.31580913822805E-14 5.72502475938117E-10 7.1479184303486E-15 1.77715754958874E-07 1.22377577771041E-14 
                1.83106303726535E-09 -180             6.8591069133846E-08 -3.25964077653609E-16 0.000553095141918591 179.999999999999 2.54466725107001E-11 180              
                1.36924412439034E-08 -9.18610736348E-16 2.5079086448466E-09 -180             3.57416653380525E-07 180              
                3.26254402966925E-10 180              1.29515028543382E-10 -180             1.26216363548138E-12 -180             1.92480343446202E-10 -180             
                1.18833228953263E-12 180              8.12399048334076E-10 180              2.54466725107001E-11 -180             0.00141094406953068 180              
                1.43053769571984E-11 180              4.54219015160746E-12 2.49581726173519E-15 8.4993595094728E-11 2.34150146218167E-20 
                3.97565802536123E-07 180              2.05415737023277E-07 -180             1.28859384943104E-09 -180             9.21373498159189E-08 -180             
                2.38150438969561E-09 180              1.15640985692695E-07 3.85859623243022E-21 1.36924412439034E-08 7.37909611995398E-15 1.43053769571984E-11 180              
                0.00204872601350914 180              3.36654993139411E-09 -180             3.56207092760178E-07 180              
                5.76794675391683E-08 -180             1.55599019052822E-07 -180             3.45208423424387E-09 -180             4.08896134900558E-08 1.37563933863582E-14 
                7.09884566915963E-09 7.17061226236277E-15 3.62988668667072E-08 -180             2.5079086448466E-09 -180             4.54219015160745E-12 1.21670664456192E-15 
                3.3665499313941E-09 -180             0.000986044919225826 180              6.19502710630236E-08 -180             
                1.88846322023974E-06 180              6.19247737164392E-07 180              4.05824628162341E-09 -180             3.62066373999574E-07 -180             
                3.33513094434016E-08 -1.66584050200353E-15 4.21518149001742E-07 180              3.57416653380524E-07 -180             8.49935950947279E-11 9.9473032506045E-21 
                3.56207092760179E-07 180              6.19502710630236E-08 180              0.000242153609411599 180              
! Gamma         !               59.2334551032211 0                75.6924263021363 0                59.233603955081  0                102.601189357238 0                
!               75.6917937513212 0                75.691961315482  0                75.6916228100943 0                102.601423886388 0                
!               102.6017521691   0                75.6919880737295 0                75.6919089736853 0                
! Port Impedance0                32.8753919345064 0                64.2162647614023 0                65.6852468393554 0                31.6394446373839 
!               0                64.3325380729565 0                32.1673459238835 0                64.2714025393277 0                63.2564148000815 
!               0                63.2266105724926 0                64.3133077846772 0                32.1631146170087 

1.05                           0.000225631781692593 179.999999999962 3.50602275296233E-06 -180             1.92554232373213E-08 -180             9.61390237190901E-07 -180             
                5.29676642515655E-08 -180             2.62262034446291E-06 8.09133685033334E-15 1.02444761657368E-07 9.50809283324325E-15 3.54048151563369E-10 -180             
                3.88090414058266E-07 -180             6.53350301597804E-08 180              2.07250028574293E-06 180              
                3.50602275296229E-06 -180             0.000440242296844293 179.999999999981 3.10063481830091E-08 -180             4.92167316620632E-08 -180             
                1.39371445650186E-07 -180             7.41685701025196E-07 1.67695466114262E-14 5.5533321098365E-08 1.18170088394461E-14 1.41673918830379E-10 -180             
                2.14407569117676E-07 -180             1.69146019753749E-07 180              6.81501865968311E-07 -180             
                1.92554232373216E-08 -180             3.1006348183009E-08 -180             0.000421224957545693 179.999999999986 1.01611230895755E-08 1.86395628941489E-14 
                5.6923850806297E-09 -180             4.43861842021148E-09 5.86299740746258E-15 6.76803963741846E-10 1.13340148417108E-14 1.47575558899227E-12 -180             
                1.45403685299384E-09 -180             3.92239256967431E-09 180              4.75767491216331E-09 -180             
                9.61390237190908E-07 -180             4.92167316620638E-08 180              1.01611230895754E-08 2.6277034946433E-14 8.23397580081948E-05 2.23982324647876E-10 
                3.32606607018212E-07 -180             2.97452217272788E-06 -180             1.94792070396841E-07 4.41223329983525E-15 2.11220628154212E-10 -180             
                1.01593350479606E-07 180              4.58731220506079E-08 9.11859469841925E-15 4.0283066018901E-07 -180             
                5.29676642515655E-08 -180             1.39371445650187E-07 -180             5.69238508062967E-09 -180             3.32606607018213E-07 -180             
                0.00105204113616366 179.999999999994 5.4134661087868E-08 6.95387360177296E-15 2.08579772059435E-09 -180             1.25317865412411E-12 -180             
                2.65569754322887E-09 180              7.95117445498115E-09 -6.03676547679046E-15 3.78813035989985E-08 -3.26155786408851E-15 
                2.62262034446294E-06 2.41505410370697E-14 7.41685701025202E-07 1.3193174256794E-14 4.43861842021152E-09 -4.05075523661006E-15 2.97452217272787E-06 -180             
                5.41346610878676E-08 2.07655523107894E-14 0.000189098368110737 180              7.53667218450059E-08 1.27238264115591E-15 8.69579686649719E-10 180              
                1.25163195275968E-07 -2.50722332626716E-14 4.12768834098717E-08 180              4.62016317833959E-07 -180             
                1.02444761657368E-07 3.05097760200878E-14 5.55333210983652E-08 3.59768422184776E-14 6.76803963741847E-10 1.30805934153581E-14 1.9479207039684E-07 1.90288293057605E-14 
                2.08579772059436E-09 -180             7.53667218450058E-08 -5.80889120026584E-16 0.000550239566466047 179.999999999999 2.8030907881284E-11 180              
                1.45847254573994E-08 -8.43640243748222E-15 2.81549333885592E-09 180              3.83920946868981E-07 180              
                3.54048151563369E-10 -180             1.41673918830377E-10 -180             1.47575558899226E-12 -180             2.11220628154213E-10 -180             
                1.25317865412411E-12 -180             8.69579686649715E-10 -180             2.80309078812841E-11 -180             0.00140612011967418 180              
                1.50156546677455E-11 180              5.15762331744155E-12 1.1059042125666E-15 9.29287189449619E-11 -1.28617945544145E-14 
                3.88090414058267E-07 180              2.14407569117676E-07 -180             1.45403685299385E-09 -180             1.01593350479606E-07 -180             
                2.65569754322888E-09 180              1.25163195275968E-07 -1.18035926891913E-15 1.45847254573995E-08 1.03919178923504E-14 1.50156546677455E-11 180              
                0.00204383958310117 -179.999999999997 3.755432651655E-09 -180             3.78209386739794E-07 -180             
                6.53350301597803E-08 -180             1.69146019753749E-07 -180             3.92239256967431E-09 -180             4.58731220506076E-08 2.03195155329306E-14 
                7.95117445498116E-09 1.83834301884093E-14 4.12768834098716E-08 -180             2.81549333885592E-09 180              5.15762331744154E-12 -2.42882040200383E-15 
                3.75543265165497E-09 180              0.000977657752279232 -179.999999999998 6.67210195660559E-08 -180             
                2.07250028574293E-06 -180             6.81501865968311E-07 -180             4.75767491216337E-09 -180             4.02830660189009E-07 -180             
                3.78813035989985E-08 1.90929175071847E-14 4.62016317833959E-07 180              3.83920946868981E-07 180              9.2928718944962E-11 -3.00981747125337E-15 
                3.78209386739793E-07 180              6.67210195660557E-08 180              0.000239575724922975 -179.999999999995 
! Gamma         !               58.8521741171545 0                75.3944268122978 0                58.8523239333673 0                102.381542537561 0                
!               75.3937917612792 0                75.3939599877537 0                75.3936201443874 0                102.381777569863 0                
!               102.38210655686  0                75.3939868517656 0                75.3939074390711 0                
! Port Impedance0                34.7427962062008 0                67.6935673345405 0                69.4163258336514 0                33.292688240831  
!               0                67.8161543061487 0                33.9092146282824 0                67.7516838216255 0                66.5617264284638 
!               0                66.5303644229195 0                67.7958825941533 0                33.9047481766698 

1.1                            0.000219196395395693 -179.999999999979 3.66410923772208E-06 -180             2.19142413114969E-08 180              1.09024348333228E-06 180              
                6.06946855047308E-08 180              2.88667168603798E-06 -7.15314732044811E-15 1.13454276998503E-07 -7.2489157136004E-15 3.8593722027548E-10 180              
                3.74427181172015E-07 180              7.4634569949693E-08 180              2.28809842727748E-06 180              
                3.66410923772207E-06 180              0.000437600396339777 179.999999999988 3.32903171810219E-08 -180             5.43625786046999E-08 -180             
                1.53143448883095E-07 -180             8.18650627397403E-07 6.02868985539019E-15 6.19805009804041E-08 5.88197381339098E-15 1.55829401806589E-10 -180             
                2.24052602940465E-07 -180             1.84906525965186E-07 -180             7.54632906142169E-07 -180             
                2.19142413114969E-08 180              3.32903171810219E-08 180              0.000420839300748654 -180             1.17558639593804E-08 -2.08542289335554E-14 
                6.48080503329934E-09 180              5.26190279489806E-09 3.14027294990079E-19 8.08460659070582E-10 -3.146348627679E-20 1.74209238019843E-12 -180             
                1.65170027528136E-09 -180             4.49172108390929E-09 -180             5.63402175778523E-09 -180             
                1.09024348333228E-06 180              5.43625786046991E-08 180              1.17558639593804E-08 -7.53002406600355E-15 9.50415089049361E-05 -3.20808544877698E-11 
                3.58672368415869E-07 180              3.18672005859048E-06 180              2.14783851528904E-07 -7.31889310472955E-15 2.33033511023245E-10 180              
                1.12731977741084E-07 180              5.18555434136883E-08 -7.74664552560143E-15 4.51338412358723E-07 180              
                6.06946855047308E-08 -180             1.53143448883095E-07 -180             6.48080503329932E-09 180              3.58672368415868E-07 180              
                0.00104214870967823 -180             5.83874968196959E-08 -3.30908904731793E-19 2.39755014718062E-09 180              1.31731324639988E-12 -180             
                2.98841927149793E-09 -180             8.96816284822217E-09 -1.91580794813848E-15 4.33923339444799E-08 -2.37295380487107E-20 
                2.886671686038E-06 -5.41868877312992E-16 8.18650627397404E-07 -2.06108940737972E-15 5.26190279489807E-09 1.30117241478949E-19 3.18672005859048E-06 180              
                5.83874968196959E-08 -2.03963086956877E-19 0.000187185956064151 -180             8.33158711201014E-08 7.96553643915239E-20 9.34410676009231E-10 -180             
                1.36181053400834E-07 -3.27502278367154E-21 4.7331661961554E-08 -180             5.09330408E-07   180              
                1.13454276998503E-07 -2.09335869497793E-15 6.1980500980404E-08 8.21294332512533E-15 8.08460659070584E-10 -6.28535277946992E-20 2.14783851528904E-07 -1.33117830288222E-14 
                2.39755014718061E-09 180              8.33158711201014E-08 1.31392596842399E-19 0.000547273555954519 -180             3.10660650087778E-11 180              
                1.5587516932869E-08 3.1535650877142E-20 3.18659924662202E-09 -180             4.14143429446913E-07 180              
                3.85937220275481E-10 180              1.5582940180659E-10 -180             1.74209238019844E-12 180              2.33033511023246E-10 180              
                1.31731324639987E-12 -180             9.3441067600923E-10 -180             3.10660650087778E-11 180              0.00140107265891287 -180             
                1.5788697403403E-11 -180             5.90408144328038E-12 -7.32114054878988E-15 1.02170106344546E-10 -5.60554456561036E-20 
                3.74427181172016E-07 180              2.24052602940464E-07 180              1.65170027528136E-09 -180             1.12731977741084E-07 180              
                2.98841927149794E-09 -180             1.36181053400834E-07 2.55490780437671E-19 1.5587516932869E-08 1.49194976775688E-19 1.57886974034029E-11 -180             
                0.00203873741461913 -180             4.22174126752327E-09 -180             4.03086820404119E-07 -180             
                7.46345699496932E-08 180              1.84906525965186E-07 -180             4.4917210839093E-09 -180             5.18555434136881E-08 3.70509359887581E-15 
                8.96816284822219E-09 6.51220135898143E-15 4.73316619615541E-08 -180             3.18659924662203E-09 -180             5.90408144328037E-12 7.06711179580159E-15 
                4.22174126752327E-09 -180             0.00096892310094232 179.999999999999 7.21247589647698E-08 -180             