! Touchstone file from project test_multiport
! Exported from HFSS 2019.2.0
!Data is not renormalized
# GHZ S MA
! Modal data exported
! Port[1] = 1:1
! Port[2] = 2:1
! Port[3] = 3:1
! Port[4] = 4:1
! Port[5] = 5:1
! Port[6] = 6:1
! Port[7] = 7:1
! Port[8] = 8:1
! Port[9] = 9:1
! Port[10] = 10:1
! Port[11] = 11:1
! Port[12] = 12:1
! Port[13] = 13:1
! Port[14] = 14:1
! Port[15] = 15:1
! Port[16] = 16:1
! Port[17] = 17:1
! Port[18] = 18:1
0.9                            0.000361929014825124 -180             2.38150103682495E-06 -180             1.27005390650572E-08 -180             6.70474933123045E-07 -180             
                3.40847048747963E-08 180              1.93508055723001E-06 -3.23092831626255E-20 6.69612739080039E-08 -2.51664814987489E-20 2.54667873075661E-10 -180             
                2.90845613004742E-07 180              4.03714850980362E-08 180              1.55127882977591E-06 180              5.18324109500605E-07 -180             
                6.54353086726028E-09 -180             6.03535981426863E-07 1.61762178985064E-19 1.0333459878423E-06 -3.33442867903245E-14 9.65951378986657E-08 2.16791122322873E-20 
                4.13399658065733E-08 2.45938297748033E-14 6.37195427139993E-11 -3.38889349997234E-15 
                2.38150103682495E-06 -180             0.000446780368966393 -180             2.49673547070376E-08 -180             4.95285729635283E-08 -180             
                1.0557851494358E-07 180              5.6435509977595E-07 -6.01195260419106E-20 3.69028561433471E-08 -2.47304651593046E-20 9.73994873266004E-11 180              
                1.81153438146685E-07 180              1.18815130821503E-07 180              5.20569951146451E-07 180              6.99676521112138E-08 -180             
                6.13415346325247E-09 -180             4.60071858791547E-07 1.15635399806989E-19 6.05531000649667E-07 -3.11315558416309E-14 1.87450238061611E-07 6.13110933120651E-21 
                4.26269263459368E-08 2.06833738030546E-14 1.79400756157685E-11 -4.15293581542876E-14 
                1.27005390650572E-08 -180             2.49673547070376E-08 -180             0.000378463182369337 -180             6.53263953868641E-09 -1.29484916115962E-19 
                3.98658082878452E-09 180              2.84690499962303E-09 -1.24592125239865E-19 3.74145170707913E-10 -2.58232911629736E-20 7.6648406486416E-13 180              
                9.07729335412249E-10 180              2.48211305392459E-09 180              3.08612317899233E-09 180              3.69094614770574E-09 -1.74371039828157E-19 
                1.00173429310736E-10 -180             6.24646355687726E-09 8.86422104769177E-20 6.61132323761443E-09 -2.97990807277134E-14 2.97922149030593E-09 3.98684533093519E-21 
                7.06383485143446E-10 8.83986126197634E-15 1.79356718278039E-13 -180             
                6.70474933123047E-07 -180             4.95285729635286E-08 -180             6.5326395386864E-09 -1.0192229006566E-19 4.80105305287193E-05 -9.25615632386024E-21 
                2.62346250659517E-07 180              2.41575226171345E-06 -180             1.30639527045741E-07 -3.9871377504374E-20 2.43716729197434E-12 6.35869985456687E-13 
                6.02062269328597E-08 180              3.08310665724136E-08 9.78318999874325E-20 2.99506595658545E-07 180              3.28655658175433E-06 -1.01177306344434E-19 
                8.79710574673474E-08 -1.65741028908657E-20 2.45583475871298E-06 1.19486599218382E-19 4.58713800248971E-06 -2.31686676769411E-14 8.44799580842244E-08 180              
                2.37222593204035E-07 -180             3.19535548959616E-09 180              
                3.40847048747963E-08 180              1.0557851494358E-07 180              3.98658082878453E-09 180              2.62346250659517E-07 180              
                0.00158293601758164 -180             4.30195619540876E-08 3.29000661337221E-20 1.25104325437668E-09 180              3.00378470785823E-12 -180             
                1.76514777627498E-09 180              5.23604679660373E-09 -3.81032827832525E-21 2.61754433137447E-08 -4.43712860339257E-20 2.78796156247949E-08 9.59355461499076E-20 
                1.08445104048178E-09 1.00427531540027E-20 4.75918471654399E-08 -180             2.93868851182654E-08 180              8.80999267578094E-09 -5.1288348150246E-21 
                5.4665615786013E-09 -180             6.61392749322526E-11 180              
                1.93508055723001E-06 -3.24062930590486E-20 5.6435509977595E-07 -6.34888567596619E-20 2.84690499962303E-09 -1.42233043816418E-19 2.41575226171345E-06 -180             
                4.30195619540875E-08 4.32256883149512E-20 0.000192450286598977 -180             5.07064321911478E-08 -6.27996989884561E-20 4.05207916305567E-10 -180             
                8.30226834383454E-08 -1.75157132781867E-14 2.62825293409566E-08 180              3.58869452944165E-07 180              2.50638881608618E-07 -8.27963584549096E-19 
                3.39636043001005E-09 -180             5.88925583817948E-07 3.07916736301154E-19 1.9502345739939E-06 -3.28774406011973E-14 1.60323972435808E-08 180              
                1.07223130806767E-08 2.63655299559171E-14 1.15747882264796E-10 9.25917834157121E-15 
                6.69612739080039E-08 -1.85165074527409E-20 3.69028561433471E-08 -1.90457785593533E-20 3.74145170707913E-10 -2.18919829968114E-20 1.30639527045741E-07 -4.27632851057817E-20 
                1.25104325437668E-09 180              5.07064321911478E-08 -4.69562985556656E-20 0.00145816199379334 -180             2.09529012672622E-11 -180             
                9.122462033801E-09 -1.80420223290597E-14 1.64551370889534E-09 180              2.85055507506514E-07 180              2.44389589863583E-07 -1.70117924009885E-20 
                6.64528326727902E-10 -2.74084094169406E-20 9.18120365823125E-08 180              4.9664718264595E-08 -2.66254570829794E-14 3.92597162513444E-09 180              
                4.2871762021706E-09 -180             8.47328508965227E-12 180              
                2.54667873075661E-10 180              9.73994873266004E-11 180              7.6648406486416E-13 180              2.43716729197429E-12 -7.06584442988754E-15 
                3.00378470785823E-12 180              4.05207916305567E-10 180              2.09529012672621E-11 180              0.00155254054082854 179.999999999999 
                1.41732556531064E-11 180              4.09351545293871E-12 -6.6788884388202E-16 8.14350781003682E-11 -1.51169942424857E-15 1.44914168123856E-10 180              
                4.95049170373117E-13 180              1.84772365108245E-11 -3.63962497790613E-17 1.13332511870836E-10 180              5.8498688066537E-12 -8.63429009816976E-16 
                2.33418656365594E-12 2.36932849683978E-14 4.22297323592693E-16 -180             
                2.90845613004742E-07 180              1.81153438146685E-07 180              9.07729335412249E-10 180              6.02062269328594E-08 180              
                1.76514777627497E-09 180              8.30226834383453E-08 -4.10157535694256E-15 9.12246203380099E-09 -3.12065685513137E-15 1.41732556531064E-11 180              
                0.00314313265674881 -179.999999999999 2.30582574799396E-09 180              2.57908196452049E-07 180              7.36866117499975E-08 180              
                5.54480409836634E-10 180              5.54493719835627E-08 -4.0504542668251E-15 9.70932485737698E-08 -3.78097790635241E-14 8.55051478544415E-09 -5.03706542011308E-15 
                3.81349664478665E-09 1.38911367086184E-14 4.3576369031001E-12 -7.7256179473018E-15 
                4.03714850980362E-08 180              1.18815130821503E-07 180              2.48211305392459E-09 180              3.08310665724135E-08 1.80009311230683E-19 
                5.23604679660374E-09 -6.80338612393896E-21 2.62825293409567E-08 180              1.64551370889534E-09 180              4.09351545293871E-12 -2.32374942108761E-15 
                2.30582574799396E-09 180              0.0012324801853395 -180             5.02508031923751E-08 -180             2.12320156192661E-07 180              
                1.03732044262016E-09 1.71354076128416E-20 5.19492130759825E-08 -180             2.84521052016233E-08 180              3.66171706309378E-08 -2.00571019104045E-21 
                1.50656127923175E-08 -180             6.80097297925173E-12 2.90818598303099E-17 
                1.55127882977591E-06 180              5.20569951146452E-07 180              3.08612317899233E-09 180              2.99506595658545E-07 180              
                2.61754433137447E-08 -5.22798946144616E-20 3.58869452944166E-07 180              2.85055507506514E-07 180              8.14350781003683E-11 -1.87787008852042E-15 
                2.57908196452048E-07 180              5.02508031923752E-08 -180             0.000358558841100032 -180             2.1228620597636E-06 7.13659808960943E-20 
                2.65884061928613E-09 2.45320269386727E-19 5.91902282509829E-07 -180             1.54131070246856E-06 180              2.14264722681183E-08 -1.29240018754794E-19 
                1.42106480259956E-08 -180             6.68881446793272E-11 -9.25534523290897E-15 
                5.18324109500607E-07 -180             6.99676521112143E-08 -180             3.69094614770572E-09 -1.92856735521497E-19 3.28655658175432E-06 -1.42856314853641E-19 
                2.78796156247951E-08 1.17954347546498E-19 2.50638881608617E-07 -7.98574497334209E-19 2.44389589863583E-07 -2.1844037185023E-20 1.44914168123856E-10 -180             
                7.36866117499978E-08 180              2.12320156192661E-07 180              2.1228620597636E-06 7.61761818780205E-20 0.00166481578527622 -180             
                6.1470610933593E-08 -2.50736143886535E-20 2.30597167203002E-06 1.35925656127196E-19 3.36478097701825E-06 -3.26920464945139E-14 8.60754496704655E-08 180              
                1.084800758286E-06 -180             8.51764703122282E-11 180              
                6.54353086726027E-09 -180             6.13415346325247E-09 -180             1.00173429310736E-10 -180             8.7971057467347E-08 -8.67828733667547E-21 
                1.08445104048178E-09 5.22406661868945E-21 3.39636043001005E-09 -180             6.64528326727901E-10 -1.424608124841E-20 4.9504917037312E-13 -180             
                5.54480409836632E-10 180              1.03732044262016E-09 5.40002370794733E-21 2.65884061928613E-09 1.00352807144782E-19 6.14706109335932E-08 -9.40438024780739E-21 
                0.000659406431928411 -180             3.73838032296359E-08 1.35943087346741E-20 1.4683316799559E-08 -1.33951367515341E-14 1.04766305572599E-09 1.11397762448021E-20 
                3.85544139394443E-11 -4.87515192136516E-13 1.03537806142264E-11 -5.76508141865332E-15 
                6.03535981426863E-07 9.2630855895083E-20 4.60071858791545E-07 6.81727515129555E-20 6.24646355687724E-09 5.75886292612795E-20 2.45583475871298E-06 9.83722914828982E-20 
                4.75918471654398E-08 -180             5.88925583817948E-07 1.71866056464276E-19 9.18120365823124E-08 180              1.84772365108245E-11 -1.2148515908308E-14 
                5.54493719835626E-08 -1.35688156889737E-14 5.19492130759825E-08 -180             5.91902282509827E-07 -180             2.30597167203002E-06 8.05898270511813E-20 
                3.73838032296358E-08 2.12061296395764E-20 0.00066818340159569 -180             3.00683645952442E-06 180              6.45690649890581E-08 -180             
                1.1059242936579E-07 -180             3.13755058942349E-10 180              
                1.03334598784231E-06 -3.17887338377583E-14 6.05531000649665E-07 -3.1033520919753E-14 6.61132323761442E-09 -3.19688639616027E-14 4.58713800248972E-06 -3.13324713292772E-14 
                2.93868851182653E-08 180              1.9502345739939E-06 -3.11244912248836E-14 4.96647182645951E-08 -3.31656874132177E-14 1.13332511870837E-10 180              
                9.70932485737699E-08 -3.33026331796704E-14 2.84521052016232E-08 180              1.54131070246856E-06 180              3.36478097701824E-06 -3.20371104987326E-14 
                1.4683316799559E-08 -3.17968979855008E-14 3.00683645952443E-06 180              0.000658983706704475 -179.999999999949 6.21399368911284E-08 180              
                6.92612763524544E-08 180              1.92625825591837E-10 180              
                9.65951378986658E-08 1.64056260380745E-20 1.87450238061611E-07 4.7896033654873E-21 2.97922149030592E-09 3.36682962027979E-21 8.44799580842245E-08 180              
                8.80999267578093E-09 -5.14107363326112E-21 1.60323972435808E-08 180              3.92597162513444E-09 180              5.8498688066537E-12 -2.63283637297439E-14 
                8.55051478544417E-09 -9.94880813171205E-15 3.66171706309377E-08 -1.13721276044609E-21 2.14264722681182E-08 -1.07918750923418E-19 8.60754496704654E-08 180              
                1.04766305572599E-09 2.1283184130997E-20 6.45690649890582E-08 -180             6.21399368911285E-08 180              0.000730478856040384 -180             
                1.15927692089494E-08 -180             4.11507155093314E-11 -3.25351522928056E-16 
                4.13399658065733E-08 3.79610207555758E-16 4.26269263459368E-08 3.97129270928521E-16 7.06383485143444E-10 5.47187809082851E-16 2.37222593204034E-07 -180             
                5.4665615786013E-09 -180             1.07223130806767E-08 5.68122005802656E-16 4.28717620217059E-09 -180             2.33418656365593E-12 1.91571690890481E-14 
                3.81349664478665E-09 -2.21708916345689E-14 1.50656127923176E-08 -180             1.42106480259956E-08 180              1.08480075828601E-06 -180             
                3.85544139394439E-11 -6.61025318942717E-16 1.1059242936579E-07 -180             6.92612763524543E-08 180              1.15927692089494E-08 -180             
                0.00229639838580098 -179.999999999999 1.3423399697952E-11 -180             
                6.37195427139995E-11 -1.30141770393998E-17 1.79400756157684E-11 1.34351326719637E-15 1.79356718278043E-13 180              3.19535548959616E-09 180              
                6.61392749322524E-11 180              1.15747882264797E-10 -8.63399835990074E-16 8.47328508965226E-12 180              4.22297323592712E-16 -180             
                4.35763690310009E-12 -4.81550740028441E-14 6.80097297925178E-12 -1.27600121958892E-15 6.68881446793271E-11 -5.42216404748893E-16 8.51764703122279E-11 180              
                1.03537806142264E-11 -9.98864109769178E-16 3.1375505894235E-10 180              1.92625825591837E-10 180              4.11507155093315E-11 -7.7206277952112E-16 
                1.3423399697952E-11 -180             0.0012981710053922 -179.999999999998 
! Gamma         !               59.933804387192  0                76.2416785181234 0                59.934035818657  0                103.007121748172 0                
!               76.2411121196787 0                76.2413202473805 0                76.2412437506969 0                103.007320756648 0                
!               103.007648659306 0                76.241299958214  0                76.2412535640471 0                103.007140715386 0                
!               59.9337868029175 0                76.2416523808152 0                59.9343590595889 0                103.007886533106 0                
!               76.2416878846294 0                103.007407657809 0                
! Port Impedance0                29.2421111292269 0                57.3710170496029 0                58.4290409197006 0                28.3537968884505 
!               0                57.4819371679689 0                28.7408030175244 0                57.4103197387094 0                56.6879911834919 
!               0                56.682131669377  0                57.4649495918211 0                28.7384231068618 0                28.3545590010693 
!               0                58.4905646045848 0                57.3876163889486 0                29.1896129366026 0                56.6736178220902 
!               0                57.3476685706399 0                56.6803759577582 

0.95                           0.000360637781352202 179.999999999981 2.47739972787799E-06 -180             1.41526434824208E-08 -180             7.43337860620033E-07 -180             
                3.80909023933647E-08 -180             2.09464928668359E-06 5.22045329127806E-15 7.29647001919891E-08 5.03885290492521E-15 2.7508808568414E-10 -180             
                2.84248402182842E-07 180              4.51326697699136E-08 -180             1.68127307167006E-06 -180             5.74477015383145E-07 180              
                7.63225476397127E-09 -180             6.68025451564943E-07 4.68679394095585E-15 1.13987999446722E-06 6.13931661693569E-15 1.04595561461012E-07 3.95740630729709E-15 
                4.66819078293272E-08 2.80821354178903E-14 7.18842841037296E-11 5.31374602265269E-15 
                2.47739972787799E-06 -180             0.000444523889354564 180              2.66499877197221E-08 180              5.35548307063474E-08 180              
                1.14119232124635E-07 -180             6.12231717102725E-07 -5.80056701235083E-20 4.04606151894259E-08 3.29439118581615E-21 1.05753543938873E-10 180              
                1.88328320334622E-07 180              1.2810203002759E-07 -180             5.67005736031446E-07 180              7.57417889613636E-08 180              
                6.99087787703595E-09 180              5.03207611746675E-07 1.26838250264911E-20 6.69511147220968E-07 1.1973725869601E-20 1.943936492688E-07 -8.0364456979671E-21 
                4.67536378447899E-08 2.45883678886527E-14 1.96412694636353E-11 -6.82015724507355E-19 
                1.41526434824209E-08 -180             2.66499877197221E-08 180              0.00037879813173114 180              7.36955915950079E-09 -2.26914089018366E-15 
                4.44412455225348E-09 -180             3.27930963529259E-09 -5.59351244900819E-20 4.34147918735974E-10 6.67899891962658E-21 8.83558666441708E-13 180              
                1.01026525240479E-09 180              2.78231912875784E-09 -180             3.54641566811835E-09 180              4.2221189690166E-09 9.55905865317963E-15 
                1.18038590229614E-10 180              7.1237395106357E-09 4.65081263887496E-21 7.7067858115399E-09 2.98653831253476E-21 3.04501665212112E-09 -3.43913334542981E-21 
                7.98242456958857E-10 2.73815546127762E-14 2.08499480304864E-13 -180             
                7.43337860620033E-07 -180             5.35548307063468E-08 -180             7.36955915950079E-09 2.47280455331388E-15 5.7576550367644E-05 -1.77440677463197E-11 
                2.7904498403369E-07 -180             2.55775460458774E-06 -180             1.41860978871381E-07 3.10437899285494E-15 3.57623893620015E-13 -180             
                6.57405580269474E-08 180              3.41476079594877E-08 3.91351454430642E-16 3.28666158289322E-07 -180             3.48827523013129E-06 -3.85857310749418E-15 
                9.61438427529201E-08 2.65252407576555E-15 2.554839248653E-06 2.4288172128549E-15 4.91370952597323E-06 2.51918762565954E-15 9.15164262228424E-08 -180             
                2.55336180629887E-07 -180             3.36722227298143E-09 -180             
                3.80909023933647E-08 -180             1.14119232124635E-07 180              4.44412455225348E-09 -180             2.7904498403369E-07 -180             
                0.00157283431491784 180              4.58947173245229E-08 1.16263828009271E-19 1.40134269585677E-09 -180             3.22953500010411E-12 180              
                1.938921072928E-09 180              5.79563260422933E-09 -5.73913416988544E-15 2.9250651202754E-08 -2.03414159118189E-20 3.0865905489448E-08 -1.95842603581747E-14 
                1.23508851519961E-09 -2.09693995470014E-19 5.24403070017739E-08 -180             3.31106960010179E-08 -180             9.59539614654919E-09 2.67868507472335E-20 
                6.03801965517222E-09 -180             7.00603266834008E-11 180              
                2.09464928668358E-06 6.83478474778582E-15 6.12231717102725E-07 -4.17919848252955E-20 3.2793096352926E-09 -5.189712769086E-20 2.55775460458773E-06 -180             
                4.58947173245228E-08 5.37919891461203E-20 0.0001904594044978 180              5.51824269787359E-08 -7.83287356203938E-21 4.38469942572283E-10 -180             
                8.89665306806559E-08 -2.61591179994491E-14 2.94742360802835E-08 -180             3.89008559361493E-07 -180             2.74479231656896E-07 8.51542770738481E-15 
                3.89050576223982E-09 -180             6.38774814016278E-07 -2.08514458199261E-20 2.10794502081678E-06 -1.25012278531233E-20 1.77430445440886E-08 180              
                1.20800769766081E-08 1.73835785103692E-14 1.24857018956319E-10 2.85271607970703E-19 
                7.29647001919892E-08 6.83479329683616E-15 4.04606151894259E-08 -1.9175030030572E-20 4.34147918735972E-10 -2.18400125547106E-20 1.41860978871382E-07 -3.68654878851252E-15 
                1.40134269585677E-09 -180             5.51824269787358E-08 2.61446101072583E-21 0.0014474241206639 -180             2.26966014418121E-11 180              
                9.66589287694252E-09 -2.89353686640068E-14 1.82588664052526E-09 180              3.04017157107969E-07 -180             2.62020946333283E-07 -1.51512609341884E-15 
                7.50161939817026E-10 -1.53240467939288E-19 9.63264695226775E-08 -180             6.47583399800551E-08 -8.31427936107894E-20 4.34897387575065E-09 180              
                4.72548183465781E-09 -180             9.43382792716783E-12 -180             
                2.75088085684141E-10 -180             1.05753543938873E-10 180              8.83558666441707E-13 -180             3.57623893619973E-13 -179.999999999992 
                3.22953500010409E-12 180              4.38469942572283E-10 180              2.2696601441812E-11 -180             0.00154721355467779 180              
                1.49163875685825E-11 180              4.57628833011445E-12 3.5469214616106E-15 8.76307053203182E-11 7.51510945141256E-20 1.587866330791E-10 180              
                5.61012817650998E-13 -180             1.88982130002327E-11 -2.4185347398394E-19 1.25766760665527E-10 -180             6.48994060981101E-12 3.26188126856667E-21 
                2.60374644695722E-12 2.63168404511196E-15 1.62803487680266E-16 180              
                2.84248402182842E-07 180              1.88328320334621E-07 180              1.01026525240479E-09 180              6.57405580269474E-08 180              
                1.938921072928E-09 180              8.89665306806558E-08 -1.12474950603043E-14 9.6658928769425E-09 -8.39546711291432E-15 1.49163875685825E-11 180              
                0.00313168453292756 -179.999999999998 2.53839928130995E-09 -180             2.72193490121589E-07 180              7.98454454223971E-08 180              
                6.35480568212E-10 180              6.00012093895872E-08 -1.09928251825944E-14 1.0436529254938E-07 -7.47680427790957E-15 9.17934478630756E-09 -1.01386519833296E-14 
                4.22773744568055E-09 1.06606844997615E-14 4.90342885667458E-12 -9.37605095777249E-15 
                4.51326697699136E-08 -180             1.2810203002759E-07 -180             2.78231912875784E-09 -180             3.41476079594877E-08 -2.44888282518093E-15 
                5.79563260422932E-09 6.33696106020425E-15 2.94742360802836E-08 -180             1.82588664052526E-09 -180             4.57628833011445E-12 6.40474972611533E-15 
                2.53839928130996E-09 180              0.00122439080355075 179.999999999999 5.37664240606276E-08 -180             2.26229870543448E-07 180              
                1.18234368517078E-09 6.84642049583822E-15 5.70998765314732E-08 -180             3.20092178658833E-08 -180             3.88520806995692E-08 7.17463204972808E-15 
                1.63196163341192E-08 -180             7.13044494236281E-12 6.54918317381269E-15 
                1.68127307167005E-06 -180             5.67005736031446E-07 180              3.54641566811835E-09 -180             3.28666158289322E-07 -180             
                2.92506512027539E-08 4.37690835167886E-21 3.89008559361492E-07 -180             3.04017157107969E-07 -180             8.76307053203179E-11 6.39358270798869E-20 
                2.72193490121588E-07 180              5.37664240606274E-08 -180             0.000355626808517973 -180             2.24764659792256E-06 -5.55140292200096E-15 
                3.05993634274676E-09 -5.46311215446422E-19 6.41301431550266E-07 -180             1.67473684885364E-06 -180             2.35830906862348E-08 6.03493556581411E-20 
                1.57883406786681E-08 -180             7.35201857571523E-11 9.6741104618651E-20 
                5.74477015383145E-07 -180             7.57417889613632E-08 180              4.22211896901661E-09 -4.4163281324182E-15 3.48827523013129E-06 2.61280254957187E-15 
                3.08659054894479E-08 -4.81048666092277E-15 2.74479231656895E-07 -5.4009455171728E-15 2.62020946333283E-07 -4.86469855259493E-15 1.587866330791E-10 180              
                7.9845445422397E-08 180              2.26229870543448E-07 -180             2.24764659792255E-06 -4.43667736128491E-15 0.00165436608155167 -179.999999999999 
                6.72811364491109E-08 -5.69039080377042E-15 2.40125336250635E-06 -4.92224119230631E-15 3.61092834049245E-06 -5.42230468976042E-15 9.26235820847033E-08 180              
                1.14245328026643E-06 -180             9.67314436238434E-11 180              
                7.63225476397126E-09 -180             6.99087787703594E-09 180              1.18038590229614E-10 180              9.614384275292E-08 5.52929193160417E-15 
                1.23508851519962E-09 -2.12701797148733E-19 3.89050576223982E-09 -180             7.50161939817024E-10 6.18591704970693E-20 5.61012817650997E-13 180              
                6.35480568212001E-10 180              1.18234368517077E-09 3.61739913740143E-15 3.05993634274677E-09 -2.77765959566822E-19 6.72811364491108E-08 -6.64216659737025E-16 
                0.000654639944354773 180              3.99741747528634E-08 3.53979135533608E-20 1.64223784122921E-08 1.80135674571843E-19 1.16493449370966E-09 -5.00863006525059E-20 
                6.59838205596993E-11 180              1.13577849328555E-11 -2.71263545361426E-19 
                6.68025451564943E-07 6.83475699752478E-15 5.03207611746674E-07 -1.83188423784406E-20 7.12373951063568E-09 1.92437430243086E-20 2.554839248653E-06 7.16666320436182E-15 
                5.24403070017737E-08 -180             6.38774814016278E-07 -1.09104760784076E-19 9.63264695226775E-08 180              1.88982130002328E-11 1.9430836616902E-20 
                6.00012093895872E-08 -2.00173248461948E-14 5.70998765314731E-08 -180             6.41301431550268E-07 -180             2.40125336250635E-06 6.53191564926302E-16 
                3.99741747528633E-08 4.9030024519532E-20 0.00066649779345207 180              3.13554326980076E-06 180              6.98744716751739E-08 -180             
                1.16127846829792E-07 -180             3.36318696297616E-10 -180             
                1.13987999446722E-06 6.83476596597472E-15 6.69511147220968E-07 -2.19485920357706E-20 7.70678581153989E-09 1.78041707348815E-20 4.91370952597324E-06 3.51312317889725E-15 
                3.31106960010178E-08 -180             2.10794502081678E-06 -4.25176559150581E-20 6.47583399800548E-08 2.50024450220391E-20 1.25766760665527E-10 180              
                1.0436529254938E-07 -2.75312072010599E-14 3.20092178658833E-08 -180             1.67473684885364E-06 -180             3.61092834049247E-06 -3.12291072864156E-16 
                1.64223784122921E-08 1.27853936195234E-19 3.13554326980076E-06 180              0.000656676355801578 180              6.92730011667401E-08 -180             
                7.61059271565965E-08 -180             2.14109614511384E-10 -180             
                1.04595561461012E-07 6.83478000651423E-15 1.943936492688E-07 -7.00811220282896E-21 3.04501665212112E-09 -1.897092269369E-21 9.15164262228425E-08 -180             
                9.59539614654917E-09 1.14684852635357E-20 1.77430445440887E-08 180              4.34897387575065E-09 180              6.489940609811E-12 -3.92818169219376E-20 
                9.17934478630756E-09 -1.12655436861101E-16 3.88520806995692E-08 -3.08888047226976E-15 2.35830906862348E-08 2.5702539645045E-20 9.26235820847032E-08 180              
                1.16493449370967E-09 1.21293384295998E-20 6.98744716751739E-08 180              6.92730011667403E-08 180              0.000729256745644946 180              
                1.22809274035646E-08 -180             4.37668799953275E-11 2.97691713089497E-20 
                4.66819078293272E-08 1.66483122910478E-14 4.67536378447899E-08 1.10462835035582E-14 7.98242456958857E-10 9.54010130820072E-15 2.55336180629887E-07 -180             
                6.03801965517221E-09 -180             1.20800769766081E-08 9.98056385479106E-15 4.7254818346578E-09 -180             2.60374644695722E-12 1.02379732494649E-14 
                4.22773744568054E-09 -1.55769178355364E-14 1.63196163341192E-08 -180             1.57883406786681E-08 -180             1.14245328026644E-06 -180             
                6.59838205596991E-11 -180             1.16127846829792E-07 -180             7.61059271565964E-08 -180             1.22809274035646E-08 -180             
                0.00228114663042356 179.999999999996 1.34677151369363E-11 -180             