! Touchstone file from project test_multiport
! Exported from HFSS 2019.2.0
!Data is not renormalized
# GHZ S MA
! Modal data exported
! Port[1] = 1:1
! Port[2] = 2:1
! Port[3] = 3:1
! Port[4] = 4:1
! Port[5] = 5:1
! Port[6] = 6:1
! Port[7] = 7:1
! Port[8] = 8:1
! Port[9] = 9:1
! Port[10] = 10:1
! Port[11] = 11:1
! Port[12] = 12:1
! Port[13] = 13:1
! Port[14] = 14:1
! Port[15] = 15:1
! Port[16] = 16:1
0.9                            0.00233013746794786 180              2.59497418564602E-06 -180             1.25396666205484E-08 -180             6.40134397825095E-07 -180             
                3.33271138975504E-08 180              1.88385691261484E-06 -7.47100957863703E-20 6.80535829080965E-08 -1.67363512894708E-14 2.78703549504331E-10 -180             
                5.75301451907622E-07 -180             4.41901370367E-08 180              1.48147026198469E-06 180              4.77289099265748E-07 -180             
                6.6776837992535E-09 -180             5.87952818112211E-07 3.34722792172905E-19 1.00382743055685E-06 -6.38035572150236E-14 1.06063300385516E-07 3.37782882379274E-20 
                2.59497418564602E-06 -180             0.00110637812677283 -180             2.52635492100731E-08 -180             4.62608729108531E-08 -180             
                1.06270987208856E-07 180              5.62025791016703E-07 -1.32077303963988E-19 3.83641467285841E-08 -1.55365001417892E-14 1.17946133797703E-10 -180             
                2.33663850495317E-07 -180             1.34395069535575E-07 180              5.12141883404623E-07 180              5.85983428504646E-08 -180             
                6.41647633896378E-09 -180             4.58654554133602E-07 2.48741642887529E-19 5.99832360442134E-07 -5.98879935021904E-14 2.06606557495094E-07 1.27647977963821E-20 
                1.25396666205484E-08 -180             2.52635492100731E-08 -180             0.000723983325310318 179.999999999984 6.37815523412452E-09 1.22685175951005E-14 
                3.93668753762109E-09 -180             2.83049680539304E-09 1.2514727351132E-14 3.86168508618205E-10 -5.36864248660303E-15 1.05246169997206E-12 -180             
                1.07352672004997E-09 -180             2.74993423975869E-09 180              3.00757579926822E-09 -180             3.5728255372419E-09 1.22410883794318E-14 
                1.04083246992951E-10 -180             6.20735714842765E-09 1.22681375894998E-14 6.52568125103203E-09 -5.11880640833229E-14 2.84134208235706E-09 1.1842865766266E-14 
                6.40134397825094E-07 -180             4.62608729108529E-08 -180             6.37815523412452E-09 1.14508961774023E-14 0.00287522518678229 -180             
                2.54114673952864E-07 180              2.37022105777339E-06 -180             1.29692826689751E-07 -2.32876736572947E-14 2.19189678149217E-10 -180             
                7.82601724911439E-08 180              3.28873903984974E-08 -1.48491600948028E-14 2.86348006209057E-07 180              3.02998965776778E-06 -3.28476993974937E-19 
                9.01829659434487E-08 6.3329883157874E-15 2.47820962710965E-06 3.81615616635556E-19 4.40076959403741E-06 -6.83102213308685E-14 8.67897738645334E-08 180              
                3.33271138975504E-08 180              1.06270987208856E-07 180              3.93668753762109E-09 -180             2.54114673952864E-07 180              
                0.00354466534358267 -180             4.28891917509593E-08 7.91130512581179E-20 1.26258334503128E-09 -180             4.3806388847039E-13 180              
                1.97442275507878E-09 180              5.72782984906574E-09 -1.36325834191472E-14 2.57683888262782E-08 -1.03177082128549E-19 2.56859607332289E-08 2.12599494598525E-19 
                1.12758250212226E-09 1.47532322496549E-14 4.72216860367405E-08 -180             2.88535976272554E-08 180              1.01190802736238E-08 -1.22169902952047E-20 
                1.88385691261484E-06 -7.04015039876786E-20 5.62025791016702E-07 -1.38705085804019E-19 2.83049680539304E-09 1.14509176028703E-14 2.3702210577734E-06 -180             
                4.28891917509594E-08 9.09992561245514E-20 0.000540159632983706 -180             5.2186449356017E-08 -2.83385276112229E-14 8.14717018471199E-10 -180             
                1.01716081756144E-07 -7.57234144835656E-14 2.89730820314156E-08 180              3.51760516830727E-07 180              2.3716408294967E-07 -1.75373924876523E-18 
                3.49152572116346E-09 -180             5.82953713649202E-07 6.77405828161265E-19 1.91124737717936E-06 -6.56807839792657E-14 1.89226638441828E-08 180              
                6.80535829080964E-08 -4.41957158082228E-15 3.83641467285842E-08 -6.14160819779091E-15 3.86168508618205E-10 6.08841262143093E-15 1.29692826689751E-07 -5.04290124071056E-15 
                1.26258334503129E-09 180              5.2186449356017E-08 -4.70991357633638E-15 0.00371572430058742 -179.999999999998 2.00913145677846E-11 180              
                1.20452463067569E-08 -4.71997606309268E-14 1.90893227081659E-09 180              2.90774503381315E-07 180              2.25553973777679E-07 -5.42955284338735E-15 
                7.08696951791432E-10 3.89902237268798E-15 9.34404975942279E-08 180              5.88921502859627E-08 -8.14122838426373E-14 4.5021772354455E-09 180              
                2.78703549504331E-10 -180             1.17946133797703E-10 -180             1.05246169997206E-12 -180             2.19189678149217E-10 -180             
                4.38063888470398E-13 180              8.14717018471199E-10 -180             2.00913145677846E-11 180              0.0036310875958494 -180             
                1.25727891180989E-11 180              3.51078157125259E-12 -1.94662477781418E-14 7.12188610537469E-11 2.86085063166294E-19 1.74602877571086E-10 -180             
                1.0989872631495E-12 180              9.32278644341758E-11 4.47185487681103E-19 1.97378673496684E-10 -6.69316732742192E-14 9.23820691190891E-12 1.06765245355331E-19 
                5.75301451907617E-07 -180             2.33663850495316E-07 -180             1.07352672004997E-09 -180             7.8260172491144E-08 180              
                1.97442275507879E-09 180              1.01716081756144E-07 -2.38272489353545E-14 1.20452463067569E-08 -3.88816619009493E-14 1.2572789118099E-11 180              
                0.0060393190094703 180              2.87644779330187E-09 180              3.32071156843533E-07 180              8.25183172457416E-08 180              
                6.9899518681208E-10 180              6.76549168214476E-08 -3.88713064494754E-14 1.19425681185743E-07 -1.01234851841973E-13 1.14334933160877E-08 3.2546542275218E-15 
                4.41901370367E-08 180              1.34395069535575E-07 -180             2.7499342397587E-09 -180             3.28873903984975E-08 -1.4588246407418E-15 
                5.72782984906574E-09 -1.24451960160362E-15 2.89730820314156E-08 180              1.90893227081659E-09 180              3.51078157125259E-12 -2.16235317308175E-15 
                2.87644779330187E-09 -180             0.00450934747909115 -179.999999999999 5.3908770501562E-08 180              2.23719000405469E-07 180              
                1.18920405439246E-09 1.90783392454681E-14 5.75407786776268E-08 180              3.159655871473E-08 180              4.5917780302916E-08 -7.93537640208637E-16 
                1.48147026198469E-06 180              5.12141883404624E-07 180              3.00757579926823E-09 -180             2.86348006209057E-07 180              
                2.57683888262782E-08 -1.23871616207395E-19 3.51760516830729E-07 180              2.90774503381315E-07 180              7.12188610537471E-11 2.96281161830038E-19 
                3.32071156843532E-07 180              5.39087705015618E-08 -180             0.0010574209892471 -180             1.94492296579438E-06 1.72900976440705E-19 
                2.7169364316036E-09 8.9860178258673E-15 5.73416702834317E-07 -180             1.49039421823351E-06 180              2.20778062908016E-08 -3.36349977485248E-19 
                4.77289099265748E-07 -180             5.85983428504646E-08 -180             3.5728255372419E-09 1.14508532609935E-14 3.02998965776778E-06 -2.96783934712177E-19 
                2.56859607332289E-08 2.28000606274239E-19 2.37164082949671E-07 -1.63675268416971E-18 2.25553973777679E-07 -9.91075401388334E-15 1.74602877571086E-10 -180             
                8.25183172457415E-08 180              2.23719000405469E-07 180              1.94492296579439E-06 1.55136098938191E-19 0.00737574741448776 -180             
                5.99453997364567E-08 8.32421112456895E-15 2.10038176961932E-06 2.84119093263019E-19 3.12388974215027E-06 -6.02497545691487E-14 9.5441513606174E-08 180              
                6.6776837992535E-09 -180             6.4164763389638E-09 -180             1.04083246992951E-10 -180             9.01829659434488E-08 4.86825974872845E-15 
                1.12758250212227E-09 1.4775980126586E-15 3.49152572116346E-09 -180             7.08696951791431E-10 -2.47346894163307E-14 1.0989872631495E-12 -180             
                6.98995186812079E-10 180              1.18920405439245E-09 2.10634391645696E-15 2.7169364316036E-09 1.56287537767287E-15 5.99453997364566E-08 9.64069404472924E-16 
                0.00235597618732941 179.999999999999 3.83244256247003E-08 5.41293878198717E-15 1.51385086253468E-08 -6.36516714203007E-14 1.21697606331155E-09 3.91078727996756E-15 
                5.87952818112209E-07 3.19090451443828E-19 4.586545541336E-07 2.42340862840096E-19 6.20735714842766E-09 1.14514212939672E-14 2.47820962710964E-06 3.34449471543414E-19 
                4.72216860367406E-08 -180             5.82953713649204E-07 6.12863115620309E-19 9.34404975942279E-08 180              9.3227864434176E-11 3.980089889247E-19 
                6.76549168214471E-08 -4.53872129755179E-14 5.75407786776269E-08 180              5.73416702834315E-07 -180             2.10038176961932E-06 2.7528664800047E-19 
                3.83244256247002E-08 1.28790823535104E-14 0.00408838577357251 -180             2.95159577137727E-06 180              7.15700956706083E-08 -180             
                1.00382743055685E-06 -6.14934163705258E-14 5.99832360442133E-07 -6.06804316322529E-14 6.52568125103202E-09 -5.00412280519557E-14 4.40076959403741E-06 -6.20803502022597E-14 
                2.88535976272554E-08 180              1.91124737717936E-06 -6.17174739524401E-14 5.88921502859628E-08 -1.88281071390489E-13 1.97378673496684E-10 -6.19427593152684E-14 
                1.19425681185742E-07 -1.31644386777005E-13 3.15965587147299E-08 180              1.49039421823351E-06 180              3.12388974215027E-06 -6.09526731519219E-14 
                1.51385086253468E-08 -5.77102370737497E-14 2.95159577137727E-06 180              0.00223530532997418 -179.999999999975 6.83627536036991E-08 180              
                1.06063300385516E-07 4.41258342831886E-20 2.06606557495094E-07 1.43557790716916E-20 2.84134208235706E-09 1.14512365802474E-14 8.67897738645335E-08 180              
                1.01190802736238E-08 -1.44924513069439E-20 1.89226638441827E-08 180              4.50217723544552E-09 180              9.23820691190889E-12 1.06806351884946E-19 
                1.14334933160877E-08 1.30441147675664E-14 4.59177803029162E-08 -1.55677039304708E-14 2.20778062908015E-08 -3.33669931006864E-19 9.54415136061741E-08 180              
                1.21697606331155E-09 1.13296032766631E-15 7.15700956706082E-08 -180             6.83627536036991E-08 180              0.00495960269831064 -180             
! Gamma         !               59.9338501060309 0                76.2417860318037 0                59.9339265007374 0                103.007192572301 0                
!               76.241113742477  0                76.2413490434892 0                76.2410279502001 0                103.007353068765 0                
!               103.008955090442 0                76.2413025410243 0                76.2412452843263 0                103.007331482811 0                
!               59.933776137428  0                76.2416822409108 0                59.9341042582546 0                103.008033045922 0                
! Port Impedance0                29.2358462765428 0                57.3477158797528 0                58.4268729290759 0                28.3559358062931 
!               0                57.4819153933399 0                28.7411576916256 0                57.4106389440034 0                56.6841482335169 
!               0                56.6345305155647 0                57.4649899458736 0                28.7385513875112 0                28.3441763838796 
!               0                58.4870725840649 0                57.3770443043396 0                29.2240659819425 0                56.6651571449654 

0.95                           0.0023280508889344 180              2.70257729983016E-06 180              1.39848095119815E-08 180              7.09924115188036E-07 180              
                3.72615485948972E-08 -180             2.03978858084605E-06 6.4127802508947E-20 7.41826175327713E-08 2.54892150203468E-20 2.99736505514727E-10 -180             
                5.7674422371915E-07 180              4.92470108488973E-08 -180             1.60707283153483E-06 -180             5.29271353596429E-07 -180             
                7.78423489658015E-09 180              6.50919595744979E-07 2.80829956171041E-15 1.10792904382499E-06 4.7171683366657E-14 1.14801309166314E-07 -3.79357896678565E-20 
                2.70257729983016E-06 180              0.00109996845395932 180              2.69686836161531E-08 180              5.01992199102004E-08 180              
                1.14902221048463E-07 -180             6.09736751840903E-07 1.27498436252569E-19 4.20446455646734E-08 -1.85219330087486E-20 1.2762966950793E-10 -180             
                2.43117874181356E-07 180              1.44535164614043E-07 -180             5.57589563086367E-07 -180             6.33825115998521E-08 -180             
                7.30853605154666E-09 180              5.01740557108288E-07 1.39261142072445E-14 6.63281477492604E-07 4.47108772591935E-14 2.14091642389586E-07 -1.16749263714465E-20 
                1.39848095119815E-08 180              2.69686836161531E-08 180              0.000723783876208195 180              7.19508825561665E-09 1.97420053630273E-19 
                4.38753044001534E-09 -180             3.25981710729882E-09 2.30419314123183E-19 4.47993547123323E-10 -1.13207397774943E-20 1.20767112907859E-12 -180             
                1.19550807994153E-09 180              3.07830678025623E-09 -180             3.45924312529289E-09 -180             4.08507734651844E-09 -1.90391710311286E-14 
                1.22570187308266E-10 180              7.07961687929999E-09 7.33766518290798E-16 7.60827128360714E-09 3.85638912753937E-14 2.87667534057793E-09 -6.98494453571214E-21 
                7.09924115188036E-07 180              5.01992199102002E-08 180              7.19508825561664E-09 2.70372441408845E-19 0.00285332091499268 180              
                2.70479572379204E-07 -180             2.50902675691833E-06 180              1.40849778763122E-07 -1.3009020569303E-20 2.36843916510439E-10 180              
                8.52585101872619E-08 180              3.63905589932035E-08 1.23907700179056E-14 3.14332246191873E-07 -180             3.21566284040034E-06 -1.23479501593515E-14 
                9.84870466221233E-08 2.56309683334352E-20 2.57808077275945E-06 1.17059987258307E-14 4.71485205341538E-06 4.38939921677305E-14 9.40535171732138E-08 -180             
                3.72615485948971E-08 -180             1.14902221048463E-07 -180             4.38753044001536E-09 -180             2.70479572379203E-07 -180             
                0.00352666005781466 180              4.58101942217099E-08 -9.1597463324954E-20 1.41710349457308E-09 180              4.44266689641826E-13 -180             
                2.16978214475092E-09 -180             6.33038508829783E-09 8.41532886185918E-15 2.88173659569905E-08 1.81652835974249E-19 2.84407587403601E-08 3.61311662416144E-14 
                1.28281247953444E-09 -1.98536681224549E-21 5.20134830513455E-08 -180             3.25212748417457E-08 -180             1.09940382858399E-08 1.05503915067475E-20 
                2.03978858084606E-06 5.45372040380838E-20 6.09736751840904E-07 1.08374585696208E-19 3.25981710729883E-09 2.42698766007967E-19 2.50902675691833E-06 180              
                4.58101942217099E-08 -7.9332409769593E-20 0.000534917069812013 180              5.67884429940524E-08 1.04556036776149E-19 8.6453130632675E-10 -180             
                1.09079796910911E-07 1.18046244790105E-19 3.24330361107807E-08 180              3.81476761625521E-07 -180             2.59627806494681E-07 4.80297025052286E-15 
                3.99785104583417E-09 180              6.32327610790347E-07 8.03295331356989E-15 2.06642145902245E-06 3.76936151879925E-14 2.09175837823468E-08 -180             
                7.41826175327714E-08 7.6920272392235E-20 4.20446455646735E-08 7.83043415646695E-20 4.47993547123325E-10 6.46116487076886E-20 1.40849778763122E-07 1.33108120903227E-19 
                1.41710349457308E-09 -180             5.67884429940525E-08 1.84914191645394E-19 0.003692648984569 180              2.19580642326864E-11 -180             
                1.27559770045403E-08 5.76357315389567E-20 2.11395899252533E-09 180              3.10093831685052E-07 -180             2.42052059898362E-07 2.64720553584291E-15 
                7.99457736671875E-10 4.8244324919286E-20 9.80604130029418E-08 180              7.46414452379498E-08 6.24063074302876E-14 4.98548247391441E-09 -180             
                2.99736505514726E-10 -180             1.27629669507931E-10 -180             1.20767112907859E-12 -180             2.36843916510439E-10 -180             
                4.44266689641819E-13 -180             8.64531306326748E-10 -180             2.19580642326863E-11 -180             0.0036191379759809 -179.999999999999 
                1.31164921500563E-11 -180             3.93389096893095E-12 -5.29199683895633E-16 7.73168725270264E-11 1.84796366270837E-15 1.90906693436213E-10 -180             
                1.24116508705635E-12 -180             9.79431610569408E-11 5.92310731746405E-15 2.00524152549658E-10 9.44748250626285E-15 1.02065615261002E-11 5.46915726162836E-16 
                5.76744223719155E-07 180              2.43117874181357E-07 180              1.19550807994153E-09 180              8.5258510187262E-08 180              
                2.16978214475092E-09 -180             1.0907979691091E-07 5.29412350440148E-20 1.27559770045402E-08 -1.62482873596126E-20 1.31164921500563E-11 -180             
                0.00602006762012652 180              3.16416692362494E-09 180              3.50114256735732E-07 -180             8.94136463008488E-08 -180             
                8.00388673067687E-10 -180             7.31849948162444E-08 8.45487880774473E-15 1.28384385536765E-07 1.11004111894334E-14 1.22664657540797E-08 -1.26346090303251E-20 
                4.92470108488972E-08 180              1.44535164614043E-07 180              3.07830678025623E-09 180              3.63905589932035E-08 2.48192290850448E-16 
                6.33038508829784E-09 -3.49493471364854E-15 3.24330361107806E-08 180              2.11395899252534E-09 180              3.93389096893096E-12 1.69065011603803E-14 
                3.16416692362495E-09 180              0.00448165372963782 -180             5.7627850625933E-08 180              2.38228938033367E-07 180              
                1.35251525309983E-09 -1.90651518463911E-15 6.31404860179921E-08 -180             3.54826860457044E-08 -180             4.86074436035093E-08 -2.41125681250258E-15 
                1.60707283153482E-06 -180             5.57589563086367E-07 -180             3.45924312529289E-09 -180             3.14332246191873E-07 -180             
                2.88173659569906E-08 1.20302764512124E-19 3.81476761625521E-07 -180             3.10093831685052E-07 180              7.73168725270265E-11 3.07925262636129E-14 
                3.50114256735732E-07 -180             5.7627850625933E-08 -180             0.00105222239645553 180              2.06032831200205E-06 1.65186137669668E-14 
                3.12687292083644E-09 -2.15719301093619E-20 6.21580657473694E-07 -180             1.62055943326464E-06 -180             2.43615826660869E-08 1.85813987813301E-19 
                5.2927135359643E-07 -180             6.3382511599852E-08 -180             4.08507734651844E-09 1.487545302255E-15 3.21566284040034E-06 1.55409856746194E-15 
                2.844075874036E-08 2.5067819321389E-15 2.59627806494681E-07 2.67702959006065E-15 2.42052059898362E-07 3.71487009951874E-15 1.90906693436213E-10 -180             
                8.94136463008485E-08 -180             2.38228938033367E-07 -180             2.06032831200205E-06 3.92291974745576E-15 0.00734720918916598 179.999999999999 
                6.5598440185597E-08 6.34599710329974E-15 2.18916312383652E-06 4.93734992408354E-15 3.35389108372273E-06 4.33633392068264E-14 1.02580601917364E-07 -180             
                7.78423489658014E-09 180              7.30853605154668E-09 180              1.22570187308267E-10 180              9.84870466221235E-08 5.8221628405513E-20 
                1.28281247953443E-09 -3.7091941784609E-20 3.99785104583418E-09 180              7.99457736671875E-10 1.08488651730937E-19 1.24116508705635E-12 180              
                8.00388673067687E-10 180              1.35251525309983E-09 9.37451963936626E-15 3.12687292083644E-09 -3.88464378710005E-19 6.5598440185597E-08 1.10813300499754E-14 
                0.00232961552580147 180              4.09539475824707E-08 4.09704380475058E-15 1.69255383874693E-08 4.64597781787467E-14 1.35228295420362E-09 -9.25735801201586E-20 
                6.50919595744979E-07 9.06504476356747E-15 5.01740557108288E-07 7.39420123103506E-15 7.07961687930002E-09 1.00958118679548E-14 2.57808077275945E-06 7.49945672147142E-15 
                5.20134830513454E-08 -180             6.32327610790346E-07 7.32401328832185E-15 9.80604130029415E-08 -180             9.79431610569407E-11 -9.41364629734629E-15 
                7.31849948162444E-08 9.58441864854446E-15 6.31404860179921E-08 -180             6.21580657473693E-07 -180             2.18916312383652E-06 -1.39498952677421E-14 
                4.09539475824707E-08 8.77741755110508E-15 0.00407361646696591 179.999999999999 3.07976544046925E-06 -180             7.74407675036319E-08 -180             
                1.10792904382499E-06 3.19252103400656E-14 6.63281477492606E-07 3.11602315582393E-14 7.60827128360716E-09 3.21277492016345E-14 4.71485205341539E-06 3.21961207698538E-14 
                3.25212748417457E-08 -180             2.06642145902245E-06 3.30641179885926E-14 7.46414452379499E-08 3.14395262899573E-14 2.00524152549658E-10 -6.36363453740202E-15 
                1.28384385536766E-07 3.15962001039651E-14 3.54826860457046E-08 -180             1.62055943326464E-06 -180             3.35389108372273E-06 2.41685802764108E-14 
                1.69255383874693E-08 3.23682273770652E-14 3.07976544046925E-06 -180             0.0022378959381183 179.999999999989 7.62140442553212E-08 -180             
                1.14801309166315E-07 -4.86635431422774E-20 2.14091642389586E-07 -1.49083633655827E-20 2.87667534057794E-09 -1.18094895744123E-20 9.40535171732137E-08 -180             
                1.09940382858399E-08 1.91468874657631E-20 2.09175837823468E-08 -180             4.98548247391442E-09 180              1.02065615261002E-11 1.23002717179074E-14 
                1.22664657540797E-08 -5.66635775892589E-20 4.86074436035093E-08 1.1453839665935E-14 2.43615826660869E-08 3.86247907438503E-19 1.02580601917364E-07 180              
                1.35228295420363E-09 -3.35807975076515E-20 7.74407675036321E-08 -180             7.62140442553213E-08 -180             0.00494569126349476 180              
! Gamma         !               59.5939187311827 0                75.9748556992771 0                59.5939955616539 0                102.809778147965 0                
!               75.9741810479056 0                75.9744171756374 0                75.9740949542001 0                102.809938952612 0                
!               102.811544050419 0                75.9743705097886 0                75.9743130519222 0                102.80991732521  0                
!               59.5938443406529 0                75.9747515437245 0                59.5941743331173 0                102.810620235442 0                
! Port Impedance0                31.0360879652121 0                60.7463387626177 0                62.0245922938039 0                29.9887384795236 
!               0                60.8885312988044 0                30.4444791244387 0                60.8130103420541 0                59.9481569274511 
!               0                59.8956803428379 0                60.8706026806074 0                30.4417142897113 0                29.976301784532  
!               0                62.0885001266696 0                60.7774389927605 0                31.0235734412882 0                59.9280714335575 

1                              0.00232570713640035 -180             2.81867750762391E-06 -180             1.56979119208282E-08 -180             7.92806108576267E-07 180              
                4.19905692253579E-08 180              2.22037600858596E-06 2.00997843519241E-23 8.13012361597055E-08 4.06803778451368E-15 3.23746205763088E-10 -180             
                5.76219656313258E-07 -180             5.53033676068094E-08 -180             1.75286112777934E-06 -180             5.91071643665427E-07 180              
                9.16666517930537E-09 -180             7.25570784162925E-07 5.80716253560982E-23 1.23065261194201E-06 7.4052868466707E-23 1.2487876591572E-07 -3.20918654879306E-15 
                2.81867750762391E-06 -180             0.00109320308459904 -180             2.88609468435602E-08 -180             5.4801557418265E-08 -180             
                1.24902641236709E-07 180              6.65188926259655E-07 1.95961937726644E-22 4.63591739943922E-08 -1.14920467991744E-14 1.38813312278935E-10 -180             
                2.53375496315142E-07 -180             1.56231472840804E-07 -180             6.10501751138472E-07 180              6.89436952033957E-08 180              
                8.39639942696021E-09 -180             5.5224872519065E-07 4.38990708580718E-22 7.38406572829628E-07 1.69664524474511E-22 2.22137312862332E-07 -4.33619058634983E-15 
                1.56979119208282E-08 180              2.88609468435601E-08 180              0.000723723592090719 -180             8.18358519884377E-09 -1.35395006429126E-21 
                4.92396171232534E-09 180              3.78952944959794E-09 4.65212558392403E-24 5.24820563582607E-10 -2.09857144264534E-14 1.3982488826547E-12 -180             
                1.3399801479812E-09 -180             3.47117893558412E-09 -180             4.01616253857007E-09 180              4.7114298179464E-09 -1.49040789588292E-21 
                1.45847486774829E-10 180              8.1446624384209E-09 -1.96612651433107E-22 8.96092143383504E-09 -3.44511022953498E-22 2.89261597966423E-09 9.46037434062822E-15 
                7.92806108576265E-07 180              5.48015574182645E-08 180              8.18358519884376E-09 1.37181381434657E-21 0.00283003900229306 180              
                2.89084214342113E-07 -180             2.66629459093562E-06 -180             1.53817009831327E-07 -7.01402054947487E-15 2.5718419072632E-10 -180             
                9.34216587938288E-08 -180             4.05463489339369E-08 1.50963967852675E-14 3.47278286553559E-07 180              3.42599408776266E-06 -1.76176957150137E-22 
                1.08161996150774E-07 -2.10558823919332E-23 2.68809461274897E-06 5.58380149397744E-23 5.07519076954091E-06 -2.93910217117369E-23 1.0248786381187E-07 180              
                4.19905692253577E-08 180              1.24902641236709E-07 180              4.92396171232533E-09 180              2.89084214342113E-07 180              
                0.00350768122708756 -179.999999999998 4.91030890736279E-08 -8.73446912379625E-15 1.60386343872193E-09 180              4.44665759416715E-13 179.999999999999 
                2.40348095426798E-09 180              7.04194588725929E-09 -6.95955741915233E-15 3.24784916473606E-08 -6.21331777147705E-15 3.17101397958263E-08 -8.45630084693371E-15 
                1.47169937156005E-09 -7.14249005958219E-15 5.7667972102761E-08 180              3.69577134852844E-08 180              1.20117100189608E-08 -2.10126959762109E-14 
                2.22037600858595E-06 -5.83782632900364E-24 6.65188926259655E-07 -2.03680378629685E-23 3.78952944959794E-09 5.21266005649196E-23 2.66629459093562E-06 180              
                4.9103089073628E-08 -5.98211734166737E-16 0.000529358323616003 -180             6.21475618037783E-08 4.8834599465794E-16 9.2074052700164E-10 -180             
                1.17539350787952E-07 -1.38211451235217E-23 3.6586613972423E-08 180              4.15919724664973E-07 -180             2.8602016285619E-07 -2.48241336400805E-22 
                4.61960299188055E-09 -180             6.8970687379396E-07 1.97632689911435E-23 2.24586352184917E-06 -4.95803983728317E-24 2.32840509679019E-08 -180             
                8.13012361597054E-08 4.94648782806607E-15 4.63591739943923E-08 5.02384781663805E-15 5.24820563582606E-10 5.82580969610816E-15 1.53817009831327E-07 4.76840564984378E-15 