! Touchstone file from project test_multiport
! Exported from HFSS 2019.2.0
!Data is not renormalized
# GHZ S MA
! Modal data exported
! Port[1] = 1:1
! Port[2] = 2:1
! Port[3] = 3:1
! Port[4] = 4:1
! Port[5] = 5:1
! Port[6] = 6:1
! Port[7] = 7:1
! Port[8] = 8:1
! Port[9] = 9:1
! Port[10] = 10:1
! Port[11] = 11:1
! Port[12] = 12:1
! Port[13] = 13:1
! Port[14] = 14:1
! Port[15] = 15:1
! Port[16] = 16:1
! Port[17] = 17:1
! Port[18] = 18:1
! Port[19] = 19:1
! Port[20] = 20:1
0.9                            0.000490606085990941 180              2.37557243607526E-06 -180             1.2688625848062E-08 180              6.61407683697846E-07 -180             
                3.43782213364862E-08 180              1.92507486896724E-06 -2.51129317816618E-20 6.92637442991596E-08 -3.04200572213038E-20 2.39325010577127E-10 180              
                2.89638005017107E-07 180              3.94920321943068E-08 180              1.54571386082883E-06 180              5.21249149752885E-07 -180             
                6.64980133207389E-09 -180             5.93254757668067E-07 1.91092341116063E-15 1.03242464861863E-06 -1.26012305372565E-14 9.82512104226791E-08 -4.62381949743434E-20 
                4.12947740794585E-08 1.08473042204017E-14 6.79437616257878E-11 1.40618801466968E-14 6.91644273054301E-08 180              5.01510796249233E-08 180              
                2.37557243607526E-06 -180             0.000622486208626705 179.999999999996 2.49885987671406E-08 -180             4.51537542026647E-08 -180             
                1.05881613605486E-07 -180             5.63053313414211E-07 5.10139966159041E-15 3.85671574645314E-08 4.94076850160755E-15 9.65959973300933E-11 -180             
                1.8766012447941E-07 -180             1.17258376165508E-07 -180             5.19040010193078E-07 -180             6.90599444424895E-08 -180             
                6.25661691693709E-09 -180             4.53605815682042E-07 5.93347825832695E-15 6.06007232896778E-07 -1.36853915110936E-14 1.91524003858435E-07 5.3199934813807E-15 
                4.27873884429184E-08 9.77602556843079E-15 2.32300697848751E-11 -2.57996907272082E-14 1.169593814785E-07 180              2.4751942934282E-08 1.25519064878443E-14 
                1.2688625848062E-08 180              2.49885987671406E-08 -180             0.000406493373500627 180              6.49244747555647E-09 -6.54101291471598E-20 
                3.97732860267659E-09 180              2.83403433568328E-09 -1.56991784707482E-19 3.92808514040419E-10 -6.02971748948265E-20 8.24702141948743E-13 180              
                9.51127727055835E-10 180              2.4266772245728E-09 180              3.08044125402707E-09 180              3.71736493864001E-09 -7.46210095861657E-20 
                1.019497762956E-10 180              6.15836121421677E-09 1.88862540096608E-15 6.60693353050336E-09 -1.26263143005345E-14 2.929002269486E-09 -2.60021883222888E-20 
                7.0744304146173E-10 3.97543228211492E-15 7.47049817033851E-14 180              1.30759238674799E-09 -1.98962521372928E-14 1.48099765287337E-10 6.7447336436514E-15 
                6.61407683697847E-07 -180             4.5153754202664E-08 180              6.49244747555646E-09 -5.16230755661761E-20 0.000364118569566641 -180             
                2.58422748255504E-07 180              2.39984345522806E-06 -180             1.35251282873789E-07 -2.25244931395951E-20 1.08840625205324E-10 -180             
                6.2548161542325E-08 -180             3.00620161482234E-08 2.35088995553842E-20 2.94729136479677E-07 180              3.2703101452934E-06 -3.70827274008813E-20 
                8.8746493502576E-08 -4.11005642638927E-21 2.51086235610504E-06 2.12859818663406E-15 4.51488217410661E-06 -6.26004892818509E-15 8.33685601627587E-08 180              
                2.37741400545255E-07 -180             3.20061087360176E-09 -180             3.99220587913265E-08 -2.44532747909902E-14 9.04419691818052E-09 6.17154757288414E-15 
                3.43782213364862E-08 180              1.05881613605486E-07 -180             3.97732860267656E-09 180              2.58422748255505E-07 180              
                0.00128294689067698 180              4.33569587247651E-08 -1.65403003219452E-20 1.25553862686647E-09 -180             1.30200756222096E-12 180              
                1.88584681951495E-09 180              5.14909067102959E-09 4.64986525699943E-20 2.61731976982937E-08 2.96247832584689E-20 2.78774581413243E-08 1.62667368821883E-20 
                1.11543617785812E-09 6.15328583918807E-21 4.73247060995738E-08 -180             2.93960343873903E-08 180              8.99550650043361E-09 -4.28816086850013E-20 
                5.50570231752614E-09 -180             7.30268512496172E-11 -180             7.58073345820311E-10 180              1.66888958002804E-10 -180             
                1.92507486896723E-06 -1.25756772029197E-20 5.63053313414211E-07 -6.99968532421294E-15 2.83403433568328E-09 -5.16536227661068E-20 2.39984345522807E-06 -180             
                4.33569587247651E-08 2.81725771794565E-20 0.000243115549746764 -180             5.32568558058828E-08 -2.8903609446248E-20 5.93495663039492E-10 -180             
                8.71283498241919E-08 -3.0793385820368E-20 2.56917128444735E-08 180              3.56563806009786E-07 180              2.49094677806652E-07 -3.93744029253986E-19 
                3.43974055655582E-09 -180             5.80850601994363E-07 -2.80430838403778E-15 1.93933899386242E-06 -1.15349883203094E-14 1.59434567801452E-08 180              
                1.06648116679984E-08 3.14337982391661E-15 1.13620135952684E-10 3.80815458971832E-15 8.14917413508644E-09 180              2.83978782940477E-09 -180             
                6.92637442991595E-08 -3.37942250207298E-20 3.85671574645315E-08 -7.8771714084396E-16 3.9280851404042E-10 -4.61767818459535E-20 1.35251282873788E-07 -7.18408060804641E-20 
                1.25553862686647E-09 180              5.32568558058826E-08 -7.00198387283635E-20 0.000968693602589887 180              1.87765274164637E-11 -180             
                9.92485708598415E-09 -2.39560855177971E-20 1.79927506140517E-09 180              2.97185911969387E-07 180              2.58714436234583E-07 -2.92759453454834E-20 
                7.27539932321229E-10 -8.3906401805206E-20 9.86857146019824E-08 -180             5.11077552102911E-08 -2.89410843084146E-14 4.18111790615556E-09 180              
                4.62046681272371E-09 -180             8.95857401034752E-12 -180             7.59492176507688E-10 -2.50054238129845E-14 1.77013173486638E-10 1.91324376305869E-14 
                2.39325010577127E-10 180              9.65959973300937E-11 -180             8.24702141948744E-13 180              1.08840625205324E-10 -180             
                1.30200756222097E-12 180              5.93495663039492E-10 -180             1.87765274164637E-11 -180             0.00263835314283689 180              
                1.12651133344501E-11 180              3.06421002297738E-12 5.49552336195152E-20 6.70660978087205E-11 3.48272307336647E-20 1.48225249832475E-10 -180             
                7.33727053852009E-13 180              5.25949221206616E-11 3.64639159584811E-15 5.34438784947035E-11 -1.80509252146582E-14 6.43270131799689E-12 -2.92810104357851E-20 
                3.30093921106689E-12 6.94113651668655E-15 6.00603200583184E-15 7.11625377638208E-14 4.92109231988779E-13 180              6.35692916758179E-14 -180             
                2.89638005017108E-07 180              1.8766012447941E-07 -180             9.51127727055836E-10 180              6.2548161542325E-08 -180             
                1.88584681951494E-09 180              8.7128349824192E-08 -7.04066735193977E-20 9.92485708598414E-09 -2.03672655739792E-20 1.12651133344501E-11 -180             
                0.00359224754134202 -180             2.31588615540637E-09 180              2.71349479190051E-07 180              7.88111670936374E-08 -180             
                5.93368272135865E-10 -180             5.75148904777207E-08 7.95899694978285E-16 1.02585047749919E-07 -2.32591926080065E-14 9.12256181248419E-09 -1.01710891795908E-20 
                4.00343237343277E-09 1.90003235742687E-14 4.86808239233841E-12 6.7564607225987E-15 6.03330195049704E-09 180              8.75105206815777E-09 180              
                3.94920321943068E-08 180              1.17258376165508E-07 -180             2.42667722457281E-09 180              3.00620161482234E-08 1.34793174345545E-19 
                5.1490906710296E-09 3.03535589677866E-20 2.56917128444735E-08 180              1.79927506140516E-09 180              3.06421002297738E-12 6.96785526197354E-20 
                2.31588615540637E-09 180              0.00109282610053485 180              4.91385630645251E-08 -180             2.11913913487377E-07 180              
                1.03410285506259E-09 1.75939317254903E-20 5.05114702559506E-08 -180             2.802962295054E-08 180              3.77466817383511E-08 -9.59445937427221E-21 
                1.47791600108037E-08 -180             6.40977847309474E-12 -3.63153883510423E-15 3.12958573783764E-08 -1.069133939629E-14 1.66522579849724E-09 4.42432992938881E-15 
                1.54571386082883E-06 180              5.19040010193078E-07 180              3.08044125402707E-09 180              2.94729136479677E-07 180              
                2.61731976982937E-08 -3.67699990957308E-20 3.56563806009786E-07 180              2.97185911969387E-07 180              6.70660978087206E-11 1.61130532554747E-20 
                2.7134947919005E-07 180              4.91385630645251E-08 -180             0.000509603756105315 -180             2.12900973978988E-06 3.65609568607135E-20 
                2.70253449589677E-09 1.17759140333744E-19 5.81057035910248E-07 -180             1.53805076760374E-06 180              2.21506664714333E-08 -4.83611620165944E-20 
                1.42273656361073E-08 180              6.64357048604313E-11 6.58829063797359E-15 4.29629483904997E-08 180              1.57194533919515E-08 -180             
                5.21249149752883E-07 -180             6.90599444424894E-08 -180             3.71736493864E-09 4.73971794712344E-22 3.27031014529341E-06 -4.32804691240624E-20 
                2.78774581413241E-08 6.32249000501503E-20 2.49094677806652E-07 -2.90349403852885E-19 2.58714436234584E-07 -1.0225504186559E-20 1.48225249832475E-10 -180             
                7.88111670936376E-08 -180             2.11913913487378E-07 180              2.12900973978988E-06 2.64917614063372E-20 0.00165361008939835 -180             
                6.24983014226596E-08 -3.78803493999042E-21 2.254768899078E-06 1.27028746220897E-15 3.36310338136767E-06 -6.54949382366051E-15 8.67251046141743E-08 180              
                1.07696743747672E-06 -180             9.40345407109513E-11 -180             6.54294388170438E-08 180              9.82684123133579E-09 -180             
                6.6498013320739E-09 180              6.25661691693709E-09 -180             1.019497762956E-10 180              8.8746493502576E-08 -1.94163931787709E-21 
                1.11543617785812E-09 4.53735850971162E-21 3.43974055655582E-09 -180             7.27539932321231E-10 -2.59005755010635E-20 7.33727053852009E-13 180              
                5.93368272135863E-10 180              1.03410285506259E-09 4.91701220933656E-21 2.70253449589677E-09 4.7355453239462E-20 6.24983014226594E-08 1.2536967596561E-23 
                0.000706978575597317 180              3.74269781415245E-08 1.88860213938625E-15 1.50333742762629E-08 -2.96630095693696E-15 1.06693051393936E-09 -1.38553845218058E-20 
                3.86424103833237E-11 -3.84210618903307E-13 1.07142563967166E-11 5.73383845712701E-15 1.28375269576858E-10 -1.34475072283704E-14 2.81269325702175E-11 2.13020323663947E-15 
                5.93254757668067E-07 2.61940416480727E-15 4.53605815682043E-07 8.56929357496794E-15 6.15836121421677E-09 2.40076536349286E-15 2.51086235610504E-06 2.93534413062214E-15 
                4.73247060995738E-08 -180             5.80850601994362E-07 2.51604167478625E-15 9.86857146019822E-08 -180             5.25949221206615E-11 3.24782128905823E-15 
                5.75148904777208E-08 3.23383723152299E-15 5.05114702559505E-08 -180             5.81057035910248E-07 -180             2.25476889907801E-06 3.49499236260814E-15 
                3.74269781415245E-08 3.65963982370097E-15 0.0013411915718553 179.999999999999 2.97138108334731E-06 180              6.40707493161608E-08 -180             
                1.08366089777604E-07 -180             3.20185552697503E-10 -180             9.38367724950814E-10 180              9.0018585691282E-10 -180             
                1.03242464861863E-06 -5.78321333951047E-16 6.06007232896778E-07 3.9667719121479E-15 6.60693353050338E-09 -1.06944624382143E-15 4.51488217410662E-06 -1.0010145254561E-15 
                2.93960343873902E-08 180              1.93933899386241E-06 -1.45573759731119E-15 5.11077552102911E-08 -1.15554498351249E-15 5.34438784947032E-11 -1.07852332236347E-15 
                1.02585047749919E-07 -1.30370952111813E-15 2.80296229505399E-08 180              1.53805076760374E-06 180              3.36310338136766E-06 -5.3077752108973E-16 
                1.5033374276263E-08 -1.50876360018059E-15 2.97138108334731E-06 180              0.000659315369998192 179.999999999996 6.26536213678864E-08 180              
                6.94111518675779E-08 -180             1.974715230277E-10 -180             8.52617848841782E-09 -2.37048444159483E-14 1.5520829606261E-09 2.13226415647614E-14 
                9.82512104226793E-08 -5.68474450165606E-20 1.91524003858435E-07 1.26943611296212E-14 2.92900226948599E-09 -2.25199471599657E-20 8.33685601627587E-08 180              
                8.99550650043359E-09 -3.75574594112453E-20 1.59434567801452E-08 180              4.18111790615554E-09 180              6.43270131799687E-12 -3.64324355663193E-20 
                9.12256181248423E-09 -4.62481018027251E-20 3.77466817383511E-08 -9.33459420137868E-21 2.21506664714333E-08 -1.64082606284117E-19 8.67251046141745E-08 180              
                1.06693051393936E-09 -7.82303879282668E-21 6.40707493161605E-08 -180             6.26536213678864E-08 180              0.000931787093770065 180              
                1.16952849274787E-08 -180             4.17102616295513E-11 8.93314424591443E-15 3.75820631339588E-08 180              1.40418228169504E-09 -180             
                4.12947740794586E-08 -3.15488976412378E-15 4.27873884429184E-08 4.79276738061278E-15 7.0744304146173E-10 -3.04217328461206E-15 2.37741400545255E-07 180              
                5.50570231752615E-09 180              1.06648116679984E-08 -2.99358875818328E-15 4.62046681272371E-09 180              3.30093921106688E-12 -2.40052905751646E-15 
                4.00343237343278E-09 -2.87931201366568E-15 1.47791600108037E-08 180              1.42273656361073E-08 180              1.07696743747673E-06 180              
                3.86424103833219E-11 -2.99508500622527E-15 1.08366089777604E-07 180              6.94111518675778E-08 180              1.16952849274786E-08 180              
                0.00231152344289509 -179.999999999998 1.16340925217961E-11 -180             1.37731013366225E-09 180              2.34219920912983E-10 180              
                6.79437616257881E-11 4.44431202753701E-15 2.32300697848752E-11 -3.51813745535731E-14 7.47049817033827E-14 180              3.20061087360176E-09 -180             
                7.30268512496175E-11 -180             1.13620135952683E-10 3.69337619740049E-15 8.95857401034752E-12 -180             6.00603200583184E-15 4.3640200298931E-15 
                4.86808239233843E-12 4.11911646666506E-15 6.40977847309473E-12 2.99278646288981E-15 6.64357048604313E-11 3.37570139385403E-15 9.40345407109515E-11 -180             
                1.07142563967167E-11 3.2375356592799E-15 3.20185552697503E-10 180              1.974715230277E-10 180              4.17102616295512E-11 3.13372076658163E-15 
                1.16340925217961E-11 180              0.0014992285232871 179.999999999999 7.28834822950282E-12 180              1.20624915342669E-12 -180             
                6.91644273054301E-08 180              1.169593814785E-07 -180             1.307592386748E-09 -1.07397112343847E-14 3.99220587913266E-08 -9.77814240433433E-15 
                7.5807334582031E-10 180              8.14917413508644E-09 180              7.59492176507691E-10 -1.03856062406083E-14 4.92109231988777E-13 180              
                6.03330195049705E-09 180              3.12958573783765E-08 -1.05939031443024E-14 4.29629483904996E-08 180              6.54294388170439E-08 180              
                1.28375269576858E-10 -1.03950905953584E-14 9.38367724950808E-10 180              8.52617848841785E-09 -2.30810694813203E-14 3.75820631339589E-08 180              
                1.37731013366225E-09 180              7.28834822950282E-12 180              0.000564555474505624 -179.999999999978 2.4200866487585E-09 -6.76845084250364E-15 
                5.01510796249233E-08 -180             2.4751942934282E-08 8.20853338536113E-15 1.48099765287337E-10 4.16332650049154E-15 9.04419691818051E-09 4.00669356525843E-15 
                1.66888958002804E-10 -180             2.83978782940477E-09 -180             1.77013173486638E-10 4.1152790542137E-15 6.35692916758179E-14 -180             
                8.75105206815779E-09 -180             1.66522579849725E-09 4.32795691883943E-15 1.57194533919516E-08 -180             9.82684123133578E-09 -180             
                2.81269325702175E-11 4.43923004574329E-15 9.00185856912821E-10 180              1.5520829606261E-09 -1.20768266350381E-14 1.40418228169504E-09 -180             
                2.34219920912983E-10 -180             1.20624915342669E-12 -180             2.42008664875851E-09 -1.51422482436025E-14 0.00108350330967022 179.999999999994 
! Gamma         !               59.9338034844877 0                76.2416229344452 0                59.9340182785009 0                103.00715964322  0                
!               76.2411070358852 0                76.2412590135745 0                76.241005882421  0                103.007331210253 0                
!               103.007631280951 0                76.241299958214  0                76.2412535633669 0                103.007139632891 0                
!               59.9337868029175 0                76.2417223893381 0                59.9344064863656 0                103.007823517812 0                
!               76.2416878846294 0                103.007407657809 0                76.2414894935945 0                103.007155231044 0                
! Port Impedance0                29.2416820044196 0                57.365771142068  0                58.4261349426656 0                28.3550007883739 
!               0                57.4821320011557 0                28.7417782125191 0                57.4169711833484 0                56.6870347759267 
!               0                56.6542258354764 0                57.4649495918202 0                28.7383117153311 0                28.3546255784673 
!               0                58.4905646045848 0                57.3779926502027 0                29.1888111571563 0                56.680426130598  
!               0                57.3476685706399 0                56.6803759577582 0                28.699817599949  0                28.3613678928999 

0.95                           0.000488710016865679 180              2.47110125722736E-06 -180             1.41410534997145E-08 180              7.33349981685041E-07 180              
                3.84040210494923E-08 -180             2.08392756157552E-06 1.41417144095445E-15 7.54239433885504E-08 9.92087090822079E-15 2.5809627969867E-10 -180             
                2.8192902271931E-07 180              4.417215921735E-08 180              1.67525962184609E-06 -180             5.77664856978156E-07 180              
                7.75466063413043E-09 180              6.56725403524155E-07 1.40618716928534E-16 1.13889299630435E-06 2.06848028174828E-14 1.06409851673186E-07 -7.46945484689992E-20 
                4.66339844884534E-08 8.47891258585896E-15 7.64277224738038E-11 -5.32178768482672E-19 7.60964977227715E-08 180              5.36958619159046E-08 -180             
                2.47110125722736E-06 -180             0.000620820999725824 179.999999999988 2.66749942729197E-08 -180             4.89466796852668E-08 -180             
                1.14428178311733E-07 -180             6.1083184980694E-07 1.34957310472719E-14 4.22579275653327E-08 1.0687365518204E-14 1.04782820943214E-10 -180             
                1.95012627961911E-07 -180             1.26468348009568E-07 180              5.6531963561763E-07 -180             7.47619698953269E-08 -180             
                7.12904694750709E-09 -180             4.96211295269181E-07 1.12587561462826E-14 6.69964097887613E-07 2.52986368095581E-14 1.98672260225968E-07 9.97187536105416E-15 
                4.69302507379813E-08 1.39805506924556E-14 2.51162650334032E-11 1.04336393825242E-14 1.24318978151145E-07 -180             2.6007018507155E-08 2.0093207543365E-14 
                1.41410534997146E-08 180              2.66749942729196E-08 -180             0.000407274493941512 180              7.32324306791364E-09 9.6640676779841E-16 
                4.43394056824165E-09 -180             3.26449959880359E-09 1.62627290492422E-15 4.55569731094478E-10 2.78526619587659E-15 9.49048828384389E-13 180              
                1.05822241325324E-09 180              2.72138623397568E-09 180              3.53994095371016E-09 180              4.25080679438734E-09 5.72276914220205E-20 
                1.20114254033054E-10 180              7.02441135590703E-09 -7.61906164210039E-15 7.70124765252712E-09 1.32287124920543E-14 2.98987763159184E-09 -4.82533756894671E-20 
                7.9944832639282E-10 6.79693311033975E-15 9.84673804997195E-14 180              1.46342334615512E-09 -1.25396498447722E-14 1.65392550227753E-10 1.16900895047192E-14 
                7.3334998168504E-07 -180             4.89466796852675E-08 -180             7.32324306791361E-09 -4.83633945328438E-16 0.00035486252306316 179.999999999989 
                2.74976640095116E-07 -180             2.54009136799422E-06 -180             1.46826757063635E-07 4.04000418179038E-15 1.19220189642761E-10 180              
                6.82674633563498E-08 180              3.33099978394572E-08 -3.10768920206544E-14 3.23417951787356E-07 -180             3.47003385480496E-06 -1.39744202762743E-16 
                9.69623061810729E-08 -8.7638078221049E-16 2.6124057110659E-06 3.32351375355893E-15 4.83559810242591E-06 1.61490366401175E-14 9.03472482578747E-08 180              
                2.55823394905171E-07 180              3.37104055603711E-09 180              4.43459874403752E-08 -1.43311089641204E-14 9.93846791071215E-09 6.83992161305949E-15 
                3.84040210494921E-08 180              1.14428178311733E-07 180              4.43394056824164E-09 180              2.74976640095116E-07 180              
                0.00127449621263887 -179.999999999997 4.62548076951489E-08 3.32405997696551E-15 1.40706296553141E-09 180              1.38068482089595E-12 180              
                2.07026037497247E-09 180              5.70147711495285E-09 -1.92999125151938E-14 2.92470487083583E-08 -3.13770564807115E-15 3.08497803890192E-08 -5.68386335250034E-15 
                1.26963497434782E-09 -3.24450665562402E-15 5.21326325228298E-08 -180             3.31222877353191E-08 180              9.79302553908266E-09 -4.60360315507409E-15 
                6.08024019001783E-09 -180             7.7262881569346E-11 180              8.5318805159961E-10 180              1.85906013471793E-10 -180             
                2.08392756157551E-06 6.8547751141201E-15 6.10831849806939E-07 2.55807436177128E-14 3.2644995988036E-09 7.54889479738711E-15 2.54009136799421E-06 -180             
                4.62548076951489E-08 1.01643060343493E-14 0.000241077049392913 179.999999999977 5.79271691235942E-08 1.24420053034326E-14 6.33573930845178E-10 -180             
                9.33299113012363E-08 7.73500808681253E-15 2.88255849689027E-08 180              3.86500469416038E-07 -180             2.72605577503684E-07 6.96605684922643E-15 
                3.94049239126893E-09 -180             6.30097654444374E-07 5.87260526260602E-15 2.09623686601863E-06 3.24209607594846E-14 1.76456064155876E-08 -180             
                1.20199337667267E-08 1.92620641628296E-14 1.22611444295922E-10 7.31802952578043E-15 9.14627274260453E-09 180              3.12370254107825E-09 -180             
                7.54239433885503E-08 7.36968719512407E-16 4.22579275653327E-08 -3.35076402736503E-16 4.55569731094478E-10 6.88566377519745E-16 1.46826757063635E-07 -1.85964520837331E-14 
                1.40706296553141E-09 -180             5.79271691235942E-08 -2.64748216437492E-15 0.000964173442840166 -179.999999999999 2.04468805449647E-11 -180             
                1.05048473410736E-08 3.50054503095477E-16 1.99315077492244E-09 180              3.16701328725593E-07 -180             2.77269678320606E-07 8.36683777307848E-16 
                8.20946998584566E-10 1.20815051041291E-15 1.03586137504201E-07 -180             6.68030145566794E-08 1.73707956331097E-14 4.62930064412293E-09 -180             
                5.09075222555522E-09 180              9.97357562449154E-12 -180             8.60644455122491E-10 -1.35125806606753E-14 1.98453293663366E-10 -8.75479938499044E-15 
                2.5809627969867E-10 -180             1.04782820943214E-10 -180             9.49048828384389E-13 180              1.19220189642761E-10 180              
                1.38068482089595E-12 180              6.33573930845177E-10 -180             2.04468805449647E-11 -180             0.00262822965849763 180              
                1.18045521739811E-11 -180             3.43680389007981E-12 -1.60716654196407E-14 7.25466166851691E-11 -1.95844070483922E-21 1.6234439189666E-10 180              
                8.309103085455E-13 180              5.51849294201673E-11 -6.60701552392911E-15 5.04854311386914E-11 1.46756935383297E-14 7.12804756764514E-12 -5.01945611128948E-20 
                3.67638858989361E-12 -1.44497551503205E-14 6.8607634639952E-15 -1.80066731136433E-18 5.62429762499478E-13 -180             7.60588292986266E-14 -180             
                2.8192902271931E-07 180              1.95012627961911E-07 -180             1.05822241325324E-09 180              6.82674633563499E-08 -180             
                2.07026037497247E-09 -180             9.33299113012363E-08 8.36835802142934E-15 1.05048473410736E-08 1.10309441090514E-14 1.18045521739811E-11 -180             
                0.00357913274674959 180              2.55187464286365E-09 -180             2.86284845768743E-07 -180             8.5330726365457E-08 180              
                6.79620930695823E-10 180              6.2215737266509E-08 -2.34666640388474E-15 1.10235933624208E-07 2.66083401275323E-14 9.79059064685153E-09 -4.06842347156957E-20 
                4.43700265755839E-09 2.94326742680601E-15 5.45912458136111E-12 -1.59229697895057E-19 6.54870020959674E-09 180              9.17246610095197E-09 -180             
                4.41721592173501E-08 180              1.26468348009568E-07 180              2.72138623397568E-09 180              3.33099978394573E-08 3.13064055205633E-15 
                5.70147711495284E-09 -1.50172533357213E-14 2.88255849689027E-08 180              1.99315077492246E-09 180              3.4368038900798E-12 -1.66933454357562E-14 
                2.55187464286366E-09 180              0.0010850698639524 -179.999999999989 5.26065722803057E-08 180              2.25897326231327E-07 180              
                1.17904495444734E-09 -1.55378168064815E-14 5.55433971278267E-08 180              3.1539091485019E-08 180              4.00319177333684E-08 -1.54554667390446E-14 
                1.60191918905533E-08 180              6.73403729987517E-12 -1.60249199990261E-14 3.34537205878191E-08 -2.04229867061287E-14 1.79412646836107E-09 -7.43728194180003E-15 
                1.67525962184609E-06 -180             5.6531963561763E-07 -180             3.53994095371017E-09 180              3.23417951787356E-07 180              
                2.92470487083584E-08 6.96130711848493E-15 3.86500469416038E-07 -180             3.16701328725593E-07 -180             7.25466166851691E-11 2.27090673282969E-20 
                2.86284845768743E-07 -180             5.26065722803059E-08 180              0.000505448252759888 180              2.25418429685672E-06 -3.64124502061951E-20 
                3.11017403611258E-09 1.02522066304211E-19 6.29609665694431E-07 -180             1.67117840061197E-06 -180             2.43635031426423E-08 -6.89279079688778E-20 
                1.58069240836682E-08 180              7.3081175250187E-11 -2.32043043990259E-19 4.67677289674057E-08 180              1.68082800583166E-08 -180             
                5.77664856978155E-07 180              7.47619698953268E-08 -180             4.25080679438735E-09 3.34375109808906E-20 3.47003385480497E-06 -1.37380959292183E-14 
                3.08497803890192E-08 -8.78470337212717E-15 2.72605577503684E-07 1.24966722393084E-14 2.77269678320606E-07 1.50701411781235E-14 1.6234439189666E-10 180              
                8.53307263654572E-08 180              2.25897326231328E-07 180              2.25418429685672E-06 -4.72297495767292E-20 0.00164287310808431 180              