! Touchstone file from project test_multiport
! Exported from HFSS 2019.2.0
!Data is not renormalized
# GHZ S MA
! Modal data exported
! Port[1] = 1:1
! Port[2] = 2:1
! Port[3] = 3:1
! Port[4] = 4:1
! Port[5] = 5:1
! Port[6] = 6:1
! Port[7] = 7:1
! Port[8] = 8:1
! Port[9] = 9:1
! Port[10] = 10:1
! Port[11] = 11:1
! Port[12] = 12:1
! Port[13] = 13:1
! Port[14] = 14:1
! Port[15] = 15:1
! Port[16] = 16:1
! Port[17] = 17:1
! Port[18] = 18:1
! Port[19] = 19:1
! Port[20] = 20:1
! Port[21] = 21:1
! Port[22] = 22:1
0.9                            0.000360393629237787 -179.999999999986 2.40024797379661E-06 180              1.26762810017241E-08 180              6.81799444714906E-07 -180             
                4.12031434057236E-08 180              1.97882869209794E-06 -5.61810677518812E-15 7.57389971277608E-08 -5.80654266265668E-15 2.48329709897388E-10 180              
                3.06952026284972E-07 -180             4.21695405322644E-08 180              1.56053904433378E-06 180              5.21740930434604E-07 180              
                6.62262440170344E-09 180              5.97457142908306E-07 -2.27796893595204E-14 1.05366428056776E-06 -5.64156677557838E-15 9.75025480579021E-08 -6.10113179937826E-15 
                4.18382197704464E-08 -2.62465587463859E-15 7.10338976611401E-12 -5.86920609895815E-15 8.03987208124461E-08 180              4.908695973711E-08 -180             
                4.06428124225369E-16 180              4.73627181813786E-06 180              
                2.4002479737966E-06 180              0.000488600754692259 -180             2.46978010792457E-08 -180             4.28245099018302E-08 -180             
                1.30074426565904E-07 -180             5.60353166184398E-07 1.14052449726287E-19 4.11659671098992E-08 7.43721257963535E-20 1.00498325536991E-10 -180             
                1.85840338802603E-07 -180             1.24253067713583E-07 -180             5.15401752882506E-07 -180             6.51995069034564E-08 -180             
                6.11979559971991E-09 -180             4.46945644531087E-07 -1.50175601729203E-14 6.03718579677204E-07 8.41331717889691E-20 1.87300987855131E-07 2.13529859362027E-20 
                4.2685514859978E-08 -1.89097388853377E-15 2.90423695817065E-11 180              1.31153190261401E-07 -180             2.44763921349466E-08 -1.17293381466235E-14 
                3.13326200447108E-15 -180             1.36689012543344E-06 -180             
                1.26762810017241E-08 180              2.46978010792457E-08 -180             0.00031561683639536 -180             6.52054084913427E-09 -1.3284987922902E-14 
                4.8158839267939E-09 180              2.79361205987135E-09 2.3008684543993E-19 4.14642292615947E-10 4.29238184883766E-20 8.9515740038117E-13 -180             
                9.1020761948059E-10 -180             2.5187756116663E-09 -180             3.04534943815425E-09 -180             3.63587395827082E-09 -2.32917777791734E-19 
                9.87177860723291E-11 -180             6.01204290627126E-09 -2.22844247133561E-14 6.52317630943519E-09 3.62219417713111E-20 2.85562944996863E-09 1.49788887050363E-20 
                7.00781211499645E-10 6.33033385144888E-15 1.05100672379756E-12 180              1.51104982083026E-09 -1.60463826282415E-20 1.45344211129277E-10 2.63248710307923E-15 
                2.70120699304948E-18 -3.515730234246E-20 1.06741545700405E-08 -180             
                6.81799444714906E-07 -180             4.28245099018293E-08 180              6.52054084913428E-09 -1.6582998709425E-15 8.69661239859543E-05 2.41691224338461E-11 
                3.0019422634475E-07 180              2.43730153087988E-06 180              1.48205083228648E-07 -1.46039096829769E-15 1.99689261488826E-10 180              
                6.20216566681494E-08 -180             3.1732330097917E-08 -1.51837945379012E-15 2.98595538114351E-07 180              3.29453195634725E-06 -8.65318306330208E-16 
                8.71119390838555E-08 -1.36320617498482E-15 2.49456676930318E-06 -1.03947586874152E-14 4.57113120247124E-06 -9.21622291437067E-16 8.28077362235057E-08 180              
                2.38874247710767E-07 180              1.85487978283453E-09 180              4.61892730728813E-08 -1.0131768791734E-15 9.07846123716926E-09 2.38266700554857E-14 
                2.69269155865617E-16 -1.16992850110557E-15 1.04095438514498E-06 180              
                4.12031434057236E-08 180              1.30074426565904E-07 -180             4.81588392679391E-09 -180             3.00194226344749E-07 180              
                0.00155568962993724 -180             5.20700309808166E-08 -4.41055098668061E-21 1.74499962308648E-09 180              1.84177076416002E-13 -180             
                2.07895251293743E-09 -180             6.45173365095794E-09 -1.48369629328384E-20 3.13340102797781E-08 -1.642131606695E-19 3.25084000538307E-08 2.79978473123261E-19 
                1.29496706023417E-09 1.85567109659313E-19 5.65650099518435E-08 180              3.59524475863703E-08 180              1.04535491648929E-08 -3.79886573032539E-21 
                6.56651374617693E-09 180              2.33601798879017E-11 -180             1.10173075098743E-09 -180             2.02661349161442E-10 180              
                7.81499009116878E-17 -7.74482083886573E-21 1.42732361395209E-08 -180             
                1.97882869209795E-06 5.62764919198685E-15 5.60353166184398E-07 -5.08099676579541E-20 2.79361205987135E-09 -6.80282530415571E-20 2.43730153087987E-06 -180             
                5.20700309808167E-08 -7.87692268875186E-21 0.000189389208902657 180              5.84597146507073E-08 4.31634040444898E-20 7.38234485044617E-10 -180             
                8.28324106389703E-08 -1.00360513925548E-15 2.70536185222137E-08 180              3.58179661396809E-07 -180             2.49843234561932E-07 -1.10432952966435E-19 
                3.38818863297155E-09 -180             5.78000208949349E-07 -1.79441556959876E-14 1.94506616273347E-06 3.00678098865549E-20 1.60681967500331E-08 180              
                1.10587370859075E-08 -3.82926391100524E-15 7.8087474883205E-11 -3.18074422447953E-20 9.25841622911639E-09 -180             2.8503973602973E-09 -180             
                9.81073486671453E-16 -180             6.72921046180702E-06 -8.3972353470455E-21 
                7.57389971277603E-08 -1.03053605736662E-15 4.11659671098991E-08 2.89725206107752E-20 4.14642292615947E-10 5.26710206992537E-21 1.48205083228649E-07 -6.42426754244214E-15 
                1.74499962308648E-09 180              5.84597146507073E-08 7.45691415423127E-20 0.000998352193790741 -180             1.76316962900851E-11 180              
                1.01223359847271E-08 1.91914006962662E-15 1.87343550327052E-09 -180             3.11241715799613E-07 -180             2.7584159512237E-07 -1.27283951960878E-21 
                7.58766942963712E-10 -7.45885346536388E-20 1.00803874795999E-07 180              9.78590171588414E-08 -1.21522041623893E-19 4.39379521386058E-09 -180             
                4.83289957663175E-09 180              4.40432649978546E-12 180              1.011968316195E-09 -5.33602540551683E-20 2.06690774018166E-10 -1.48697903837177E-14 
                2.16029424216921E-17 -180             5.44032546975759E-08 6.13536239567128E-20 
                2.48329709897389E-10 180              1.00498325536991E-10 -180             8.95157400381171E-13 -180             1.99689261488826E-10 -180             
                1.84177076416006E-13 -180             7.3823448504462E-10 180              1.76316962900851E-11 180              0.00151414310223619 -180             
                8.82588635927997E-12 -180             2.7067183204338E-12 2.72732392000979E-21 6.08561381458775E-11 -3.0508025194956E-20 1.59885815757414E-10 -180             
                9.21340245148681E-13 180              8.08607426096992E-11 -5.91356566102417E-15 1.80169195241944E-10 3.61776754963082E-20 7.09931264894367E-12 1.94349305101335E-20 
                4.10933074412127E-12 -8.42167349728978E-15 1.53196661886105E-15 -6.58215780808415E-19 1.17221050666316E-12 -180             2.30354741291785E-13 180              
                1.36112829300332E-19 -1.16986121307006E-21 6.76665742177479E-10 -180             
                3.06952026284973E-07 -180             1.85840338802603E-07 -180             9.10207619480592E-10 -180             6.20216566681496E-08 -180             
                2.07895251293743E-09 -180             8.28324106389704E-08 1.15041419695869E-15 1.01223359847271E-08 2.01995434933153E-15 8.82588635927997E-12 -180             
                0.00292962557884513 -179.999999999999 2.48298217944202E-09 -180             2.60831739606886E-07 -180             7.32040764356464E-08 -180             
                5.59856749238864E-10 -180             5.46652466194273E-08 -1.15358154932498E-14 9.80922462807792E-08 1.21360453854812E-15 8.69879233975303E-09 1.00495541076656E-15 
                3.85032570968069E-09 8.50362441134804E-15 3.85483712181229E-13 -4.57509519964305E-16 6.8610038844738E-09 -180             8.49720103352632E-09 -180             
                5.32640462675671E-17 1.57363196978733E-15 5.75315600436628E-07 1.46739005068807E-15 
                4.21695405322643E-08 -180             1.24253067713583E-07 180              2.5187756116663E-09 180              3.1732330097917E-08 1.16036858323895E-14 
                6.45173365095791E-09 -1.37596133944333E-20 2.70536185222137E-08 -180             1.87343550327052E-09 -180             2.70671832043381E-12 1.38034905454259E-19 
                2.48298217944203E-09 180              0.00126617806833995 180              5.15240084818898E-08 180              2.16879518922799E-07 180              
                1.06650627892447E-09 6.8800046604205E-20 5.19962403592101E-08 180              2.95155533636678E-08 -180             3.76251900758385E-08 -5.92571689911575E-21 
                1.54188802846485E-08 180              8.00913329714151E-12 -8.62321070684256E-20 3.6916048577598E-08 3.21918687677274E-21 1.7386011772471E-09 1.48183597921404E-14 
                2.12478171340135E-17 1.97088314590265E-20 2.19216813746687E-08 180              
                1.56053904433378E-06 180              5.15401752882506E-07 -180             3.04534943815425E-09 -180             2.98595538114351E-07 180              
                3.13340102797781E-08 -6.14377055087124E-20 3.58179661396809E-07 180              3.11241715799613E-07 180              6.08561381458774E-11 -6.77725622867807E-20 
                2.60831739606887E-07 180              5.15240084818898E-08 -180             0.000340768671863056 -180             2.11803148632712E-06 9.2590396117257E-21 
                2.65441557304291E-09 1.69246542824027E-19 5.79656006034546E-07 180              1.53643556998698E-06 180              2.1244124078978E-08 4.73396775661653E-20 
                1.3548672394534E-08 180              5.23709708938478E-11 -1.06500303940674E-19 4.92293676967267E-08 -180             1.55583140373915E-08 -180             
                1.53767081499619E-16 -5.39490711128035E-20 8.11511730015178E-07 -180             
                5.21740930434604E-07 180              6.51995069034575E-08 -180             3.63587395827082E-09 -1.57724939833336E-19 3.29453195634726E-06 -3.95741382546848E-15 
                3.25084000538308E-08 2.75981529596003E-19 2.49843234561933E-07 2.36093029143556E-19 2.75841595122371E-07 5.56211027673549E-21 1.59885815757414E-10 -180             
                7.32040764356463E-08 -180             2.16879518922799E-07 180              2.11803148632712E-06 5.64497060232358E-21 0.00101549223399011 -180             
                6.17774812618861E-08 -6.27319121374856E-20 2.25250043948961E-06 -1.47435072099709E-14 3.37497342425338E-06 1.02073641234229E-20 8.65810833102121E-08 180              
                1.05876937542664E-06 180              5.08159614650639E-11 9.95733846612336E-19 7.41356297909061E-08 -180             9.7818320741751E-09 -180             
                1.03593348451166E-16 -180             5.57041032120052E-07 -180             
                6.62262440170343E-09 -180             6.1197955997199E-09 -180             9.87177860723291E-11 -180             8.71119390838554E-08 7.79678891477959E-16 
                1.29496706023417E-09 8.69774436524198E-20 3.38818863297156E-09 -180             7.58766942963711E-10 6.10717006591123E-20 9.21340245148678E-13 -180             
                5.59856749238864E-10 -180             1.06650627892447E-09 3.62291601036169E-20 2.65441557304292E-09 2.3243827036394E-19 6.17774812618862E-08 -4.149054867137E-20 
                0.000944700764844986 -180             3.8255232653253E-08 -1.79988108078745E-14 1.47766999742743E-08 1.07292278511158E-19 1.04677374673812E-09 6.48938861376972E-20 
                5.59229772041E-11 -180             5.56224698023023E-12 9.43809238072578E-20 1.41009434722504E-10 -3.81156059250427E-20 2.74773482327028E-11 2.7791566871128E-14 
                2.02630625663853E-18 5.95004479516564E-20 6.77106152406386E-09 -180             
                5.97457142908306E-07 -4.79278823294018E-15 4.46945644531086E-07 -1.01465388829241E-14 6.01204290627126E-09 -1.05428223436607E-14 2.49456676930318E-06 -1.73412060579924E-14 
                5.65650099518434E-08 180              5.78000208949347E-07 -1.05456079350074E-14 1.00803874795999E-07 180              8.08607426096992E-11 -1.079956442513E-14 
                5.46652466194273E-08 -6.27385074761791E-15 5.199624035921E-08 180              5.79656006034547E-07 180              2.25250043948961E-06 -1.09749754490456E-14 
                3.8255232653253E-08 -1.06580295034555E-14 0.000513071941282361 -179.999999999988 2.9528521181631E-06 180              6.28991791848384E-08 180              
                1.08115516673861E-07 180              1.62423207105829E-10 180              7.06414272906242E-10 180              8.62764710794367E-10 -180             
                1.93639095133444E-16 180              6.33487012819859E-07 -1.02527809992355E-14 
                1.05366428056776E-06 -7.32110384936574E-17 6.03718579677204E-07 2.85193138607753E-20 6.52317630943519E-09 -2.52706586464723E-20 4.57113120247124E-06 -7.83600365539192E-15 
                3.59524475863703E-08 180              1.94506616273348E-06 7.26333825406498E-20 9.78590171588415E-08 -1.09451741430592E-19 1.80169195241944E-10 7.30523944203115E-20 
                9.80922462807791E-08 2.47909595874816E-15 2.95155533636678E-08 -180             1.53643556998698E-06 180              3.37497342425338E-06 -2.75011259013799E-20 
                1.47766999742742E-08 -2.26297357108881E-19 2.9528521181631E-06 180              0.000595781428686215 -180             6.21547081125052E-08 180              
                6.87948479237784E-08 180              8.47576780538968E-11 180              9.96657308786163E-09 -2.24441936032553E-19 1.5349622669206E-09 -4.43975280267329E-14 
                3.84519942313692E-16 -180             1.25926712065186E-06 6.06051711408256E-20 
                9.75025480579022E-08 -1.05386297865456E-14 1.87300987855131E-07 1.86085762014426E-20 2.85562944996863E-09 1.166752166286E-20 8.28077362235057E-08 180              
                1.0453549164893E-08 -4.14888399873128E-20 1.60681967500332E-08 -180             4.39379521386058E-09 -180             7.09931264894367E-12 2.63488041991931E-20 
                8.69879233975302E-09 3.90363360956917E-15 3.76251900758384E-08 -3.75724315227653E-22 2.12441240789781E-08 1.28134129465227E-20 8.65810833102123E-08 180              
                1.04677374673812E-09 1.83460852147903E-19 6.28991791848385E-08 180              6.21547081125052E-08 -180             0.0011507121569726 -180             
                1.15779994792553E-08 -180             3.02918289446568E-11 -8.51268038304615E-20 4.08264611354306E-08 180              1.35607216534262E-09 -180             
                4.30778183615634E-18 9.08384078459829E-20 7.40231686012554E-08 7.09847845705981E-20 
                4.18382197704464E-08 -1.09691320018735E-14 4.2685514859978E-08 -6.58762323502525E-15 7.00781211499646E-10 -7.23015479757715E-15 2.38874247710767E-07 180              
                6.56651374617693E-09 180              1.10587370859075E-08 -6.85316145581983E-15 4.83289957663176E-09 180              4.10933074412128E-12 -7.50373249976891E-15 
                3.85032570968068E-09 -8.34220441364799E-15 1.54188802846485E-08 180              1.3548672394534E-08 180              1.05876937542664E-06 180              
                5.59229772040987E-11 180              1.08115516673861E-07 180              6.87948479237788E-08 180              1.15779994792553E-08 180              
                0.00209068782501221 -179.999999999996 2.09136531919602E-11 180              1.57317709334779E-09 180              2.37663932317523E-10 -180             
                9.62007926586185E-18 180              3.78872930520816E-08 -6.85998682354073E-15 
                7.10338976611393E-12 -1.00476813334704E-14 2.90423695817066E-11 180              1.05100672379756E-12 180              1.85487978283453E-09 180              
                2.33601798879017E-11 -180             7.80874748832051E-11 -3.06791725168835E-19 4.40432649978547E-12 180              1.53196661886105E-15 -1.26970973282846E-18 
                3.85483712181227E-13 -8.9587813904139E-14 8.00913329714152E-12 3.15086537841084E-20 5.23709708938478E-11 -6.97777947065619E-20 5.08159614650638E-11 6.79803916892887E-19 
                5.56224698023023E-12 1.70921418250283E-19 1.62423207105828E-10 180              8.47576780538969E-11 180              3.02918289446569E-11 -2.9586989039253E-20 
                2.09136531919602E-11 -180             0.00161317804836292 -180             4.59743611702092E-12 180              6.4679879089352E-13 -180             
                1.66545021241897E-20 180              2.05333252419395E-11 -4.41594709797294E-19 
                8.03987208124461E-08 -180             1.31153190261401E-07 -180             1.51104982083027E-09 -1.67724109538584E-22 4.61892730728812E-08 9.35693467017743E-16 
                1.10173075098743E-09 180              9.25841622911642E-09 180              1.011968316195E-09 -2.32145897698193E-20 1.17221050666315E-12 180              
                6.8610038844738E-09 -180             3.69160485775979E-08 -3.69104164851782E-22 4.92293676967267E-08 -180             7.41356297909063E-08 -180             
                1.41009434722504E-10 -4.72001921526191E-20 7.06414272906248E-10 180              9.96657308786165E-09 -6.92072844254443E-20 4.08264611354306E-08 180              
                1.57317709334779E-09 -180             4.59743611702092E-12 180              0.000459526110587527 -180             2.76882694948873E-09 1.5248276833188E-14 
                5.37138066732019E-18 -1.23494214961598E-20 4.59250002311505E-08 -180             
                4.90869597371098E-08 -180             2.44763921349466E-08 5.1961875444341E-15 1.45344211129277E-10 5.90008020507113E-15 9.07846123716926E-09 -4.44676489655257E-15 
                2.02661349161445E-10 -180             2.85039736029729E-09 -180             2.06690774018166E-10 5.41085349411746E-15 2.30354741291785E-13 -180             
                8.4972010335263E-09 -180             1.7386011772471E-09 5.50431035897397E-15 1.55583140373915E-08 -180             9.7818320741751E-09 -180             
                2.74773482327028E-11 6.05679093035441E-15 8.62764710794368E-10 180              1.53496226692061E-09 5.46443650418914E-15 1.35607216534262E-09 -180             
                2.37663932317523E-10 -180             6.46798790893522E-13 -180             2.76882694948873E-09 5.48624162241752E-15 0.000949418659181855 179.999999999996 
                3.67054595922698E-18 -180             2.35035694190242E-08 -180             
                4.06428124225368E-16 180              3.13326200447109E-15 180              2.70120699304948E-18 1.58116370599802E-20 2.69269155865616E-16 1.5627527698814E-14 
                7.81499009116875E-17 -1.62210059899827E-20 9.81073486671452E-16 -180             2.16029424216921E-17 180              1.36112829300332E-19 -3.12641238716978E-21 
                5.32640462675669E-17 1.19487998005618E-14 2.12478171340135E-17 -6.86006829848901E-21 1.53767081499619E-16 -3.01625584243386E-20 1.03593348451166E-16 180              
                2.02630625663853E-18 2.17697718130613E-19 1.93639095133444E-16 180              3.84519942313691E-16 180              4.30778183615639E-18 -1.11178309729889E-19 
                9.62007926586184E-18 180              1.66545021241896E-20 -180             5.37138066732021E-18 1.83729898951604E-20 3.67054595922699E-18 180              
                0.00235800268889475 180              1.01945656432792E-14 -2.48722848966128E-22 
                4.73627181813786E-06 180              1.36689012543344E-06 -180             1.06741545700405E-08 -180             1.04095438514498E-06 -180             
                1.42732361395209E-08 180              6.72921046180703E-06 6.23019891487057E-21 5.44032546975759E-08 4.13200556920869E-20 6.7666574217748E-10 -180             
                5.75315600436627E-07 7.10926702043202E-16 2.19216813746688E-08 -180             8.11511730015179E-07 -180             5.57041032120053E-07 -180             
                6.77106152406386E-09 -180             6.33487012819859E-07 -2.05393617193726E-14 1.25926712065185E-06 3.02682906732606E-20 7.40231686012553E-08 4.85189643641072E-20 
                3.78872930520815E-08 -5.91071621461504E-15 2.05333252419395E-11 6.85890394343772E-19 4.59250002311506E-08 -180             2.35035694190242E-08 -180             
                1.01945656432791E-14 -5.45128419765E-22 0.000975408534495625 -180             
! Gamma         !               59.9338025093054 0                76.2417411788341 0                59.933944032544  0                103.007145848457 0                
!               76.2412463250201 0                76.2412741751672 0                76.2409480094865 0                103.007331036033 0                
!               103.007331884854 0                76.241299958214  0                76.2412532105729 0                103.007127087114 0                
!               59.9337861339059 0                76.2416495874278 0                59.9341097879668 0                103.007940874094 0                
!               76.2416747955048 0                103.00732840374  0                76.2414939336958 0                103.007182185114 0                
!               208.58862408678  0                103.007398911828 0                
! Port Impedance0                29.241724778692  0                57.3735194357612 0                58.4552098052278 0                28.3526198062302 
!               0                57.472643438184  0                28.7418310291055 0                57.4274257043659 0                56.6895891991136 
!               0                56.6814883476546 0                57.4649495918211 0                28.7383101011352 0                28.3544827253479 
!               0                58.4905270574655 0                57.3877192687261 0                29.2238655535996 0                56.6690441936521 
!               0                57.3483018141482 0                56.6830796816825 0                28.6969550389593 0                28.3574176159685 
!               0                28.0033737933643 0                56.6873939306023 

0.95                           0.000359046568527255 -180             2.49633187310752E-06 -180             1.41267804097075E-08 -180             7.5569981305347E-07 -180             
                4.58916733649259E-08 -180             2.14152893753202E-06 -1.10224984646941E-14 8.24418430295811E-08 4.82296316987176E-20 2.67101478594599E-10 -180             
                3.0072529698872E-07 180              4.71396546930642E-08 180              1.69165003216518E-06 -180             5.78220021537658E-07 -180             
                7.7249868976115E-09 -180             6.61300078441346E-07 -5.24838826481044E-20 1.16246847672665E-06 1.68922253494632E-14 1.0559425046862E-07 6.34171202104238E-20 
                4.72276139763719E-08 8.86061557935239E-20 8.71155227929594E-12 -3.9105826860335E-14 8.82838163959053E-08 -180             5.25805266703487E-08 180              
                3.4313763739784E-16 180              4.7233525741238E-06 180              
                2.49633187310753E-06 -180             0.000487283448689868 -180             2.63693408028233E-08 180              4.65265111733883E-08 180              
                1.39975419303923E-07 -180             6.07940189496586E-07 -1.07086942111353E-14 4.50818466089598E-08 6.15063350547644E-20 1.08772948789546E-10 -180             
                1.93220931364113E-07 180              1.33845980319605E-07 180              5.61455311986324E-07 -180             7.06402321061357E-08 180              
                6.974718648437E-09 180              4.8891550280566E-07 -7.34310029752326E-21 6.67456004650046E-07 1.50107377328892E-14 1.94287577720216E-07 6.11833798272354E-21 
                4.67974435204788E-08 -1.57947904790304E-20 3.09958627031504E-11 180              1.39195600474255E-07 -180             2.57188571208061E-08 -2.33640111378688E-15 
                3.27838267516662E-15 180              1.40416749153355E-06 180              
                1.41267804097075E-08 180              2.63693408028234E-08 180              0.000316264419980339 -179.999999999986 7.35443860906894E-09 -4.81151152986535E-15 
                5.35106321008427E-09 180              3.21820542257407E-09 -1.735946924576E-14 4.80627075131651E-10 -3.23009112188477E-15 1.02754786099429E-12 180              
                1.01335250960038E-09 180              2.82253532083439E-09 180              3.49981510699749E-09 180              4.15930040418264E-09 -3.90178317366765E-15 
                1.16337126129214E-10 180              6.85827666615407E-09 -3.63476658687316E-15 7.60418838596375E-09 1.51386593019177E-14 2.91490977953176E-09 -3.51990086839074E-15 
                7.91579556884019E-10 -3.16397353781194E-15 1.16727338309016E-12 180              1.68743105673149E-09 -1.20753151284815E-15 1.62329692277284E-10 -8.72638852105404E-15 
                2.58163276392606E-18 -3.53903650897216E-15 1.17703012747712E-08 180              
                7.55699813053472E-07 -180             4.6526511173388E-08 -180             7.35443860906893E-09 9.59391697844265E-15 9.62645385151895E-05 3.88257843518389E-11 
                3.18848205239456E-07 -180             2.57998221939846E-06 180              1.60744106403674E-07 2.47629641133311E-15 2.15741476563145E-10 -180             
                6.77079643582151E-08 -180             3.51446654404926E-08 7.68952287370908E-15 3.2772155728664E-07 -180             3.49549441419706E-06 1.89040822739974E-15 
                9.52084594042137E-08 2.20274453956096E-15 2.59964235227362E-06 2.19587661832414E-15 4.89538077649987E-06 1.9848934848225E-14 8.97474818555605E-08 -180             
                2.56950634546277E-07 -180             1.9568282685923E-09 180              5.12190426913285E-08 2.19218945860113E-14 9.97697472697928E-09 3.42616498167412E-15 
                2.6978524958413E-16 2.64628588288584E-15 1.11794772074829E-06 180              
                4.58916733649258E-08 -180             1.39975419303923E-07 -180             5.35106321008427E-09 -180             3.18848205239456E-07 -180             
                0.00154606430533122 180              5.5366102721384E-08 -2.35386714357579E-14 1.94674966915073E-09 -180             1.64876345277239E-13 180              
                2.27674854489343E-09 180              7.11867087915532E-09 -3.06484664146806E-14 3.492024744906E-08 2.24729221542926E-20 3.59041496968613E-08 -6.12970590546032E-19 
                1.47034356179572E-09 -3.48060473432985E-19 6.21095381970617E-08 -180             4.0363324693898E-08 -180             1.13640776296544E-08 6.51818399257329E-20 
                7.22628480614278E-09 180              2.46286886665376E-11 180              1.23233438719809E-09 180              2.25004501057592E-10 -180             
                8.28359563104764E-17 3.6998109465053E-19 1.64919876345136E-08 180              
                2.14152893753202E-06 -8.22247841048978E-15 6.07940189496587E-07 -8.17758569542458E-15 3.21820542257407E-09 -1.74865071898723E-14 2.57998221939846E-06 180              
                5.53661027213843E-08 -8.27844798970893E-15 0.000187740087946864 -179.999999999957 6.34784616536826E-08 -8.44823633176898E-15 7.82829071816202E-10 180              
                8.88408061305946E-08 -8.22245099950936E-15 3.03271338272595E-08 180              3.88353054701088E-07 180              2.73573227655218E-07 -7.96962382513636E-15 
                3.88202983854799E-09 180              6.26874178522376E-07 -8.47731170675303E-15 2.10237233622429E-06 1.01966229434393E-14 1.77811699102208E-08 180              
                1.24446468085726E-08 -9.04239555467298E-15 8.4360331208254E-11 -7.24220400456267E-15 1.03737232892544E-08 -180             3.13462822539364E-09 180              
                1.02910746147214E-15 180              7.01395519712683E-06 -2.45836303192066E-14 
                8.24418430295811E-08 2.92403867823549E-20 4.50818466089598E-08 3.49689104946544E-20 4.8062707513165E-10 -9.79864404565023E-15 1.60744106403673E-07 9.04514550893339E-16 
                1.94674966915073E-09 -180             6.34784616536828E-08 -1.69899466559384E-14 0.000993418552731606 180              1.93001057008898E-11 180              