! Touchstone file from project test_multiport
! Exported from HFSS 2019.2.0
!Data is not renormalized
# GHZ S MA
! Modal data exported
! Port[1] = 1:1
! Port[2] = 2:1
! Port[3] = 3:1
! Port[4] = 4:1
! Port[5] = 5:1
! Port[6] = 6:1
! Port[7] = 7:1
! Port[8] = 8:1
! Port[9] = 9:1
! Port[10] = 10:1
! Port[11] = 11:1
! Port[12] = 12:1
! Port[13] = 13:1
! Port[14] = 14:1
! Port[15] = 15:1
! Port[16] = 16:1
! Port[17] = 17:1
! Port[18] = 18:1
! Port[19] = 19:1
! Port[20] = 20:1
! Port[21] = 21:1
0.9                            0.000375953946939789 180              2.39780936086233E-06 180              1.28133823350426E-08 180              6.70931129583643E-07 180              
                3.35741246941354E-08 -180             1.9426495718455E-06 2.72943682600887E-14 6.97563183030681E-08 5.25204696761063E-20 2.0312172686395E-10 -180             
                3.21794918554309E-07 180              3.94283816763818E-08 -180             1.56287264441412E-06 -180             5.26212402833568E-07 180              
                6.59293259905262E-09 180              6.02138348791634E-07 7.29330348761628E-20 1.04135563765441E-06 1.25791116354239E-19 1.0028091350173E-07 -1.3674167837111E-20 
                4.17690476476649E-08 -1.81254593947204E-14 7.92820726341805E-12 -1.85980035597414E-13 8.03269745998453E-08 180              5.05961300267096E-08 -180             
                3.38970139696408E-18 8.78043474619413E-19 
                2.39780936086234E-06 180              0.000463223645994604 180              2.48371984410402E-08 180              3.87735429179614E-08 180              
                1.02759222240948E-07 -180             5.6056562628333E-07 3.12608001353653E-14 3.81693535479107E-08 3.30797096100558E-20 7.86272727984796E-11 -180             
                1.92471740183358E-07 180              1.15357772643112E-07 -180             5.21690774047515E-07 -180             7.19560108977602E-08 180              
                6.12280217493761E-09 180              4.54607255465652E-07 3.49756692459385E-20 6.03656652551609E-07 7.56894708193131E-20 1.92802670589571E-07 -3.28023887656046E-21 
                4.27261232013034E-08 -1.45983061124893E-14 2.93139614360158E-11 -180             1.31832519083362E-07 180              2.44958822863519E-08 -1.2163875928428E-21 
                1.61936094657021E-16 6.01304543063489E-21 
                1.28133823350426E-08 180              2.48371984410402E-08 180              0.000358566538511629 180              6.5999086479001E-09 -7.86324162924061E-15 
                3.91406785046265E-09 -180             2.83744270660251E-09 2.18799535354967E-14 3.87879036320068E-10 -2.61198295822156E-21 6.49394137785467E-13 -180             
                9.5518727308898E-10 180              2.41014086343561E-09 -180             3.09497647539402E-09 -180             3.7248691343637E-09 -2.50355054871944E-20 
                1.00304568294087E-10 -180             6.20172079628021E-09 -5.76100990295799E-21 6.60751657637688E-09 1.14291817937697E-21 2.94892212782314E-09 8.0918640647341E-22 
                7.09980915131887E-10 -1.51342545620101E-14 1.07529064826577E-12 -180             1.5284487778909E-09 -1.9961796093978E-14 1.47416165126591E-10 -3.95542226348726E-21 
                1.3641962864318E-19 180              
                6.70931129583642E-07 180              3.87735429179616E-08 180              6.5999086479001E-09 -5.96846751802762E-16 7.71652469353512E-05 -4.10634787912962E-11 
                2.49281512225231E-07 -180             2.44218208442933E-06 -180             1.35651371172878E-07 -7.57933755418525E-16 5.48026704850665E-11 -180             
                6.37353287300032E-08 180              2.97527272075547E-08 -9.68746049229855E-16 3.02265797421654E-07 180              3.29235380899155E-06 -8.76350218590552E-16 
                8.69789501448891E-08 -6.33618168657444E-16 2.55296429430568E-06 -2.09625791652564E-16 4.5464276519696E-06 2.17053429401526E-16 8.53687734627826E-08 180              
                2.3924402093824E-07 180              1.94239477846516E-09 180              4.61959897295303E-08 -1.99885191562781E-14 9.08746406350155E-09 -3.67429599639563E-16 
                1.36383140614181E-17 180              
                3.35741246941353E-08 -180             1.02759222240948E-07 -180             3.91406785046267E-09 -180             2.49281512225231E-07 -180             
                0.00131522629987813 179.999999999993 4.20896667824553E-08 4.29067419212847E-14 1.22438184993905E-09 -180             1.54233473089306E-12 -180             
                1.75785168117022E-09 -180             4.96129087659269E-09 1.39863187464978E-14 2.54588765349678E-08 1.33738771479065E-14 2.66989747996963E-08 1.51124451151534E-14 
                1.06119105985084E-09 1.36538983183632E-14 4.64248450293238E-08 -180             2.88723333891546E-08 -180             8.82707841627721E-09 1.40337291540178E-14 
                5.3408345858163E-09 180              2.21225861575375E-11 180              8.91909183562216E-10 180              1.63652781424752E-10 -180             
                3.36446729457293E-18 -180             
                1.94264957184549E-06 2.52275528263976E-14 5.60565626283329E-07 2.40695295300924E-14 2.8374427066025E-09 2.46675727251306E-14 2.44218208442932E-06 -180             
                4.20896667824552E-08 4.12823847877873E-14 0.000205004256324637 179.999999999898 5.22914015408247E-08 2.43919367340514E-14 4.37977009401648E-10 -180             
                8.56147842625034E-08 2.41289266044072E-14 2.54824670960897E-08 -180             3.5823664596824E-07 -180             2.49486542020199E-07 2.4382221328899E-14 
                3.3860639175084E-09 -180             5.83656985246654E-07 2.41865810367817E-14 1.95094972600132E-06 2.42483909881383E-14 1.62078983582621E-08 -180             
                1.0706960166486E-08 2.58427231458954E-15 8.07132709493188E-11 2.63594104048984E-14 9.20222109387714E-09 -180             2.82609276321381E-09 -180             
                5.13585603712218E-17 2.40727699908539E-14 
                6.97563183030681E-08 4.58520973461651E-20 3.81693535479106E-08 2.1490710755433E-20 3.87879036320068E-10 4.79335130956085E-21 1.35651371172878E-07 -5.31514877617467E-15 
                1.22438184993906E-09 -180             5.22914015408247E-08 2.42499197807261E-14 0.000736558941308529 180              1.60985748570574E-11 -180             
                9.85517997281137E-09 1.49825884413645E-20 1.73965921413736E-09 -180             2.96879240350159E-07 -180             2.51463137731838E-07 -4.24549091791267E-21 
                7.0098717399881E-10 -5.38171266752504E-20 9.63647708264845E-08 180              2.13566943508066E-08 7.53812447637355E-20 4.17426332730357E-09 180              
                4.53749425706581E-09 180              4.0944361911805E-12 180              8.95680780556654E-10 -1.14026501629634E-14 1.79710200969715E-10 -4.04312269599857E-20 
                1.08338283251225E-18 7.27076707881889E-20 
                2.03121726863951E-10 -180             7.86272727984796E-11 -180             6.49394137785468E-13 -180             5.48026704850663E-11 180              
                1.54233473089306E-12 -180             4.37977009401647E-10 -180             1.60985748570574E-11 -180             0.00161192462210891 180              
                1.0250503440473E-11 -180             2.78213579965683E-12 1.18771626927441E-19 5.94054242246232E-11 7.41519046964034E-20 1.18781694737614E-10 -180             
                5.18030735639053E-13 180              3.1705297683348E-11 -2.06911098161246E-19 1.31572651333377E-11 -180             5.08413679720214E-12 3.57602985680942E-20 
                2.38355806026633E-12 -6.513796833022E-15 1.72790325019436E-15 -180             2.11135487449223E-13 180              3.29215821060819E-14 1.17720655076785E-18 
                5.58635406846033E-21 -180             
                3.21794918554309E-07 180              1.92471740183358E-07 180              9.55187273088984E-10 180              6.37353287300032E-08 180              
                1.75785168117022E-09 -180             8.56147842625036E-08 2.35273033801065E-14 9.85517997281136E-09 1.38353320946552E-20 1.0250503440473E-11 -180             
                0.00154669599942714 180              2.40287077309673E-09 -180             2.70726177219038E-07 -180             7.6790792108587E-08 180              
                5.80741120192928E-10 180              5.74347585249397E-08 2.68869104396926E-20 1.01196202425178E-07 4.65688583498783E-20 9.2574289910918E-09 -5.46423410173016E-21 
                4.00322234038937E-09 -1.61188820742759E-14 4.68807181946546E-13 -3.25343755193728E-13 7.08595678895721E-09 180              8.76743317375033E-09 -180             
                2.73449625389927E-18 180              
                3.94283816763819E-08 -180             1.15357772643112E-07 -180             2.4101408634356E-09 -180             2.97527272075547E-08 -1.16388435670016E-14 
                4.96129087659269E-09 1.85199701980159E-14 2.54824670960896E-08 -180             1.73965921413736E-09 -180             2.78213579965682E-12 1.35901618874765E-19 
                2.40287077309673E-09 -180             0.000955066130801541 -180             4.87256058484021E-08 180              2.09626805161064E-07 -180             
                1.00883703238738E-09 -2.04895155208073E-20 5.03604122107909E-08 -180             2.7900315113953E-08 -180             3.77973221146967E-08 1.62374547746592E-21 
                1.46783151250027E-08 180              7.69515315928505E-12 1.56908745565578E-14 3.46787327526047E-08 -1.49221074581918E-14 1.64421252953704E-09 -1.00394059784971E-21 
                1.06233669763893E-18 -180             
                1.56287264441412E-06 -180             5.21690774047516E-07 -180             3.09497647539402E-09 -180             3.02265797421655E-07 180              
                2.54588765349679E-08 2.42735366744204E-14 3.5823664596824E-07 -180             2.96879240350159E-07 -180             5.94054242246231E-11 6.21893633683675E-20 
                2.70726177219037E-07 -180             4.8725605848402E-08 180              0.000317258801847409 180              2.13139447146635E-06 6.56933336942598E-22 
                2.66182533825471E-09 4.80495931980933E-20 5.8629913110812E-07 -180             1.53705132829652E-06 -180             2.24280522601987E-08 3.03099040233298E-22 
                1.42509679051379E-08 180              5.38247396472665E-11 1.52210892710668E-15 4.942192879637E-08 180              1.56470529220019E-08 180              
                8.59979215440223E-18 -180             
                5.26212402833568E-07 180              7.19560108977598E-08 180              3.72486913436371E-09 7.69629851554757E-21 3.29235380899154E-06 -2.61722443745238E-15 
                2.66989747996962E-08 2.43852082235178E-14 2.49486542020199E-07 2.96570042004429E-14 2.51463137731839E-07 1.18107921075531E-21 1.18781694737613E-10 -180             
                7.67907921085868E-08 180              2.09626805161064E-07 -180             2.13139447146635E-06 -1.72140043131548E-21 0.00101185990058916 -180             
                6.163233557644E-08 -8.14120188110544E-22 2.27084972311033E-06 2.90352200784539E-21 3.36831958769695E-06 7.96863166671707E-21 8.80579063936366E-08 -180             
                1.07141686786476E-06 180              5.00082715690415E-11 7.39785566638332E-14 7.45142808484212E-08 180              9.78303624104053E-09 -180             
                5.40777766697741E-18 7.90840185841105E-20 
                6.59293259905261E-09 -180             6.12280217493762E-09 -180             1.00304568294087E-10 -180             8.69789501448893E-08 -4.41952121230374E-15 
                1.06119105985084E-09 1.75815962531396E-14 3.38606391750841E-09 -180             7.00987173998813E-10 -4.04647576656534E-20 5.18030735639053E-13 180              
                5.80741120192929E-10 180              1.00883703238738E-09 -3.4357888119935E-21 2.66182533825472E-09 2.46047393991009E-20 6.16323355764403E-08 -1.02238788940993E-20 
                0.000775764204640983 -180             3.72767840025197E-08 -1.01063894439801E-20 1.48084407725983E-08 -3.92668365118823E-20 1.06279465672341E-09 1.28647355422161E-20 
                2.83574084203938E-11 -1.11990745418678E-14 5.75159891498025E-12 -9.97780392022167E-15 1.4094917054303E-10 -1.70273302693102E-14 2.75310623453388E-11 -3.76853629349925E-20 
                1.08319605373231E-19 -180             
                6.02138348791635E-07 6.42663690918629E-20 4.54607255465653E-07 2.31956140388023E-20 6.20172079628021E-09 9.10578954932594E-21 2.55296429430567E-06 -2.79709438528611E-15 
                4.64248450293237E-08 -180             5.83656985246657E-07 2.85854907123532E-14 9.63647708264848E-08 180              3.1705297683348E-11 -2.56534559674663E-19 
                5.74347585249399E-08 2.87471464430952E-20 5.0360412210791E-08 -180             5.86299131108122E-07 -180             2.27084972311033E-06 -9.80177309320957E-22 
                3.72767840025198E-08 -3.28713702633631E-21 0.000713041584080476 180              3.00093821507044E-06 180              6.53210890980758E-08 -180             
                1.09920772552711E-07 180              1.69128091103167E-10 180              7.69953188509668E-10 180              8.85810363997849E-10 -180             
                1.05478280481021E-17 9.15053439853696E-20 
                1.04135563765441E-06 7.72464162474213E-20 6.0365665255161E-07 4.16644788690304E-20 6.60751657637689E-09 4.47243867359214E-20 4.5464276519696E-06 2.66488986173347E-15 
                2.88723333891545E-08 -180             1.95094972600132E-06 2.07415718517651E-14 2.13566943508064E-08 2.61554275775188E-19 1.31572651333376E-11 -180             
                1.01196202425178E-07 2.47794071398656E-20 2.7900315113953E-08 -180             1.53705132829653E-06 -180             3.36831958769696E-06 2.51281717217544E-20 
                1.48084407725983E-08 1.28046313619798E-19 3.00093821507044E-06 180              0.000158751142775415 180              6.34213926208382E-08 -180             
                6.96649455478556E-08 180              8.90839063306421E-11 180              9.97700787886289E-09 -1.28441566308824E-14 1.54105677977134E-09 5.89081866267974E-20 
                2.07982249877473E-17 9.95163736549607E-20 
                1.0028091350173E-07 -1.15393808375196E-20 1.92802670589571E-07 -2.02805463447421E-21 2.94892212782314E-09 3.37194646766487E-22 8.53687734627824E-08 180              
                8.8270784162772E-09 2.16949482901098E-14 1.62078983582622E-08 -180             4.17426332730357E-09 180              5.08413679720214E-12 3.50870564224818E-20 
                9.25742899109182E-09 -6.52311852949399E-21 3.77973221146967E-08 1.36853572790666E-21 2.24280522601987E-08 2.15466257320312E-21 8.80579063936366E-08 180              
                1.06279465672341E-09 2.28320435726633E-20 6.53210890980759E-08 180              6.34213926208381E-08 -180             0.000996780922803087 -180             
                1.18728656291891E-08 180              3.17564631111744E-11 -1.95521776726729E-15 4.33369964063772E-08 180              1.41157201786924E-09 180              
                2.465306622732E-19 -180             
                4.17690476476649E-08 -8.94647069677315E-15 4.27261232013033E-08 -9.01151162503523E-15 7.09980915131887E-10 -9.06537163183498E-15 2.3924402093824E-07 180              
                5.3408345858163E-09 -180             1.0706960166486E-08 4.34441386666247E-15 4.53749425706581E-09 180              2.38355806026633E-12 -8.82931690537661E-15 
                4.00322234038935E-09 -9.05432979593799E-15 1.46783151250026E-08 180              1.42509679051379E-08 180              1.07141686786475E-06 180              
                2.83574084203926E-11 -7.82901299377408E-15 1.09920772552711E-07 180              6.96649455478556E-08 180              1.18728656291891E-08 180              
                0.00233295106022158 -179.999999999996 2.04187292473532E-11 -180             1.54070134007318E-09 180              2.33888843502532E-10 180              
                5.05668169208613E-19 -8.11730255313284E-15 
                7.92820726341804E-12 2.30788020834877E-15 2.93139614360159E-11 -180             1.07529064826577E-12 -180             1.94239477846516E-09 -180             
                2.21225861575375E-11 -180             8.07132709493184E-11 2.9800762729598E-14 4.0944361911805E-12 -180             1.72790325019436E-15 -180             
                4.6880718194655E-13 2.36606523000769E-15 7.69515315928505E-12 2.52430780899077E-15 5.38247396472664E-11 2.52620310984263E-15 5.00082715690414E-11 2.77936113592131E-15 
                5.75159891498025E-12 3.04483703803021E-15 1.69128091103167E-10 -180             8.90839063306419E-11 -180             3.17564631111743E-11 2.33437293287231E-15 
                2.04187292473532E-11 180              0.000740182541044576 179.999999999994 4.7680806886941E-12 180              6.71829223944936E-13 -180             
                8.95390304640976E-22 2.67420379147726E-15 
                8.03269745998453E-08 180              1.31832519083363E-07 180              1.5284487778909E-09 -9.72796474687491E-15 4.61959897295303E-08 -1.36571725262426E-14 
                8.91909183562214E-10 -180             9.20222109387716E-09 -180             8.95680780556655E-10 -9.9452249785994E-15 2.11135487449224E-13 180              
                7.08595678895722E-09 180              3.46787327526047E-08 -9.99782809038085E-15 4.942192879637E-08 180              7.45142808484214E-08 180              
                1.40949170543029E-10 -9.97654610335658E-15 7.69953188509673E-10 180              9.97700787886289E-09 -1.00290663792526E-14 4.33369964063772E-08 180              
                1.54070134007318E-09 180              4.7680806886941E-12 180              0.000449436721963403 -179.999999999983 2.77366287310564E-09 -9.36043141497819E-15 
                2.77933491401692E-19 180              
                5.05961300267096E-08 -180             2.44958822863519E-08 -1.39426727892304E-21 1.47416165126591E-10 -1.73389712795853E-21 9.08746406350155E-09 -2.01746227417812E-15 
                1.63652781424752E-10 -180             2.82609276321381E-09 -180             1.79710200969715E-10 -1.97176929091167E-20 3.29215821060818E-14 9.75285095469609E-19 
                8.76743317375036E-09 -180             1.64421252953704E-09 -1.01781057310433E-22 1.56470529220019E-08 180              9.78303624104053E-09 -180             
                2.75310623453389E-11 2.37369077447715E-20 8.85810363997848E-10 -180             1.54105677977134E-09 -5.91702967182918E-20 1.41157201786924E-09 180              
                2.33888843502531E-10 180              6.71829223944935E-13 180              2.77366287310564E-09 -1.88761291963263E-14 0.000937471240755383 180              
                1.8266849479231E-19 -2.11771458558494E-20 
                3.38970139696413E-18 9.20913156966179E-19 1.61936094657021E-16 5.48766136538595E-21 1.3641962864318E-19 180              1.3638314061418E-17 180              
                3.36446729457292E-18 -180             5.1358560371222E-17 2.77882747477658E-14 1.08338283251225E-18 9.03594770595523E-20 5.58635406846031E-21 -180             
                2.73449625389927E-18 180              1.06233669763893E-18 -180             8.59979215440224E-18 -180             5.40777766697737E-18 1.37614938993745E-19 
                1.08319605373231E-19 180              1.05478280481021E-17 1.11587164546442E-19 2.07982249877473E-17 1.69425753216859E-19 2.46530662273202E-19 -180             
                5.05668169208615E-19 4.80317970901935E-15 8.9539030464097E-22 6.12113197991752E-14 2.77933491401693E-19 -180             1.8266849479231E-19 -2.01309304385066E-20 
                0.00277819712036054 180              
! Gamma         !               59.9337976905674 0                76.2417320377862 0                59.9339479207242 0                103.007143350522 0                
!               76.2411144171303 0                76.2412590623642 0                76.2410240195123 0                103.007285111192 0                
!               103.007643514556 0                76.241299958214  0                76.2412514205656 0                103.007127087114 0                
!               59.9337859476857 0                76.241691607294  0                59.9338002900495 0                103.007900722908 0                
!               76.2416878846294 0                103.00741914817  0                76.2414949250496 0                103.007200982743 0                
!               208.588625041219 0                
! Port Impedance0                29.2416619595456 0                57.3714589698691 0                58.4549234908142 0                28.3525303749922 
!               0                57.4821454970754 0                28.7417756673993 0                57.4366536033523 0                56.6895921535256 
!               0                56.6823702579291 0                57.4649495918211 0                28.7399795177659 0                28.3544827253479 
!               0                58.4905382182123 0                57.3938424210467 0                29.2484470852705 0                56.6737726964176 
!               0                57.3476685706399 0                56.6846430092334 0                28.6970627594195 0                28.3572515568841 
!               0                28.003236615199  

0.95                           0.000374974830962604 180              2.49437918505746E-06 180              1.4279710575432E-08 180              7.4398143497718E-07 180              
                3.75129501813472E-08 -180             2.10285413228085E-06 -1.24729719388302E-21 7.59853376400155E-08 2.54718904997219E-15 2.19735236902291E-10 -180             
                3.15478138785863E-07 180              4.4103698532475E-08 -180             1.69382330220292E-06 -180             5.83116546944256E-07 180              
                7.6896744525967E-09 -180             6.66477035992134E-07 6.920872245905E-15 1.14880408126325E-06 4.38519612937351E-22 1.08601272857515E-07 -4.21881682743496E-21 
                4.71655156127797E-08 -1.32091671228142E-15 9.66527768348004E-12 -4.40156171076734E-19 8.81941414762041E-08 180              5.41653753585552E-08 180              
                7.31188404052002E-19 180              
                2.49437918505746E-06 -180             0.000461362186123915 -180             2.65125704921471E-08 180              4.21521685560245E-08 180              
                1.11103364481203E-07 -180             6.08090792402245E-07 -7.34948238357875E-21 4.18321642607335E-08 2.44985801997784E-15 8.5525556050364E-11 -180             
                2.00065096218489E-07 -180             1.24438910969336E-07 -180             5.6820319202268E-07 180              7.78514641565068E-08 180              
                6.97822342456198E-09 -180             4.97283052828034E-07 -1.40422909299027E-15 6.6740946134217E-07 1.88605509929396E-20 1.99996981208698E-07 -3.97954725731645E-22 
                4.6861774804737E-08 -5.75366408341493E-15 3.12563612502227E-11 -180             1.39885650105197E-07 -180             2.57422526162868E-08 4.52362176351562E-22 
                1.6998477527423E-16 -2.01986860098022E-22 
                1.42797105754319E-08 180              2.65125704921471E-08 -180             0.000359487135959902 -180             7.44326777953674E-09 -1.30786523700065E-14 
                4.36383260979289E-09 180              3.26808458851459E-09 6.26926623276342E-20 4.49920751869054E-10 1.87027490074273E-15 7.49707801901925E-13 180              
                1.06308407191369E-09 180              2.70304600095697E-09 -180             3.55649343937435E-09 180              4.25910476978668E-09 -7.73705053175051E-20 
                1.18197657642066E-10 -180             7.07328877776752E-09 -1.00903404334399E-15 7.70204816172464E-09 -4.42856599897922E-20 3.00918157927228E-09 2.59677991071766E-21 
                8.0225966632474E-10 -9.43982615540601E-15 1.19333093716534E-12 180              1.70669004656326E-09 -3.70361342129146E-21 1.64628818691496E-10 -5.45360645332272E-21 
                1.27847614217467E-19 180              
                7.43981434977181E-07 180              4.2152168556025E-08 180              7.44326777953674E-09 -5.60525633699024E-15 8.65112213241925E-05 -8.4226647814625E-11 
                2.65522976154697E-07 180              2.58493052641958E-06 180              1.47208304062474E-07 -3.81551714192757E-15 6.13433678137372E-11 180              
                6.95774260157339E-08 180              3.29806118742869E-08 1.43483392873634E-14 3.31650173944701E-07 180              3.49355416255435E-06 -5.40397696482832E-15 
                9.50636467452126E-08 9.36750622350565E-15 2.65607929606624E-06 -6.52269865188087E-15 4.87069483267308E-06 -5.79833810465334E-15 9.25074125221592E-08 180              
                2.57442243855368E-07 180              2.04814407866035E-09 180              5.12259255628648E-08 -6.5912500045966E-15 9.98688560334331E-09 -5.64686070340775E-15 
                1.35930400803166E-17 180              
                3.75129501813472E-08 180              1.11103364481202E-07 180              4.36383260979288E-09 -180             2.65522976154696E-07 -180             
                0.00130530074455959 180              4.4926280924556E-08 5.96696350072769E-20 1.37335224508059E-09 180              1.64424298785363E-12 180              
                1.93234655650609E-09 180              5.4966106746124E-09 1.2838307167033E-14 2.84717460602183E-08 -2.17150561915256E-21 2.95718490140078E-08 -6.86157156549618E-20 
                1.20878410444913E-09 2.46329751140552E-14 5.11570018214787E-08 180              3.2537381277107E-08 -180             9.61571560628382E-09 4.84461724482294E-21 
                5.90119672777808E-09 180              2.33634103569018E-11 180              1.00052461708258E-09 -180             1.8230835561372E-10 -180             
                3.58703456251873E-18 180              
                2.10285413228084E-06 -9.16563098482008E-21 6.08090792402246E-07 -4.11281746536034E-21 3.2680845885146E-09 4.69769340738828E-20 2.58493052641959E-06 180              
                4.49262809245561E-08 -1.34810214417497E-19 0.000203155235902419 -180             5.6898773591111E-08 9.32485077084237E-16 4.71200041327698E-10 -180             
                9.17732250674968E-08 -2.05101762509723E-20 2.85912396097623E-08 -180             3.88371759621423E-07 -180             2.73019387556973E-07 2.65597294352955E-19 
                3.87939477455427E-09 -180             6.33084381161386E-07 -3.1216695844804E-15 2.10845834716579E-06 6.07642783735741E-20 1.79362900092037E-08 -180             
                1.20644051164553E-08 -1.54780914262978E-14 8.71850971067571E-11 -5.42418256818001E-19 1.03108313569748E-08 180              3.10813313767297E-09 180              
                5.40058090794227E-17 -6.41560987190577E-21 
                7.59853376400153E-08 2.94840690326911E-15 4.18321642607335E-08 2.75705642616792E-15 4.49920751869053E-10 3.01595049703583E-15 1.47208304062474E-07 -3.29737511267407E-15 
                1.3733522450806E-09 -180             5.6898773591111E-08 2.61560252627328E-15 0.000734816163955543 -180             1.75195950727535E-11 -180             
                1.04366350767655E-08 2.80396650824501E-15 1.928703765973E-09 -180             3.1645682676501E-07 -180             2.69588430617755E-07 2.68447444299822E-15 
                7.91095606531569E-10 1.85645106048452E-14 1.01099401336347E-07 -180             3.52266996484818E-08 2.40038105071657E-15 4.62207124945055E-09 -180             
                4.99919637000197E-09 -180             4.58184285301698E-12 -180             1.01162042381122E-09 3.09763408186364E-15 2.01163085357173E-10 2.91383582593972E-15 
                1.19450797275069E-18 2.96763354346109E-15 
                2.19735236902291E-10 180              8.55255560503641E-11 180              7.49707801901925E-13 180              6.1343367813737E-11 -180             
                1.64424298785363E-12 180              4.71200041327697E-10 180              1.75195950727535E-11 -180             0.00160640091613173 180              
                1.07863828498858E-11 180              3.1201731533547E-12 1.57461495444266E-14 6.42628359309457E-11 -2.19708477832086E-21 1.30365276257501E-10 -180             
                5.88350208437747E-13 -180             3.32209446030616E-11 1.28752176558938E-14 1.85389189290528E-11 -180             5.65105864984391E-12 -2.51652121360749E-22 
                2.66304395409911E-12 -2.06078389272247E-15 1.72618371608794E-15 180              2.51076418191681E-13 -180             2.96481562084833E-14 -8.76152961090194E-20 
                6.01634612706341E-21 180              
                3.15478138785863E-07 -180             2.00065096218489E-07 -180             1.06308407191369E-09 180              6.95774260157338E-08 180              
                1.93234655650609E-09 -180             9.17732250674969E-08 -1.78461203609908E-20 1.04366350767655E-08 -2.55330471864427E-15 1.07863828498858E-11 -180             
                0.00154148945960786 -180             2.64574561167572E-09 -180             2.85629936029861E-07 -180             8.31904730200965E-08 180              