! Touchstone file from project test_multiport
! Exported from HFSS 2019.2.0
!Data is not renormalized
# GHZ S MA
! Modal data exported
! Port[1] = 1:1
! Port[2] = 2:1
! Port[3] = 3:1
! Port[4] = 4:1
! Port[5] = 5:1
! Port[6] = 6:1
! Port[7] = 7:1
! Port[8] = 8:1
! Port[9] = 9:1
! Port[10] = 10:1
! Port[11] = 11:1
! Port[12] = 12:1
! Port[13] = 13:1
! Port[14] = 14:1
! Port[15] = 15:1
0.9                            0.000763877556829717 180              3.0597451069127E-06 180              1.3514756250221E-08 -180             6.86356451743596E-07 -180             
                4.19569297606479E-08 180              2.02503303028421E-06 1.4419277270656E-20 7.24202808108433E-08 2.26792942842895E-19 2.82617945606275E-10 180              
                1.84483455926481E-07 180              4.366530888723E-08 180              1.6292837870745E-06 -180             5.10513095433787E-07 -180             
                6.89093176629498E-09 -180             6.29064068369462E-07 4.03814295381264E-20 1.09293361917206E-06 7.56266587121026E-20 
                3.05974510691271E-06 180              0.00105116521098969 180              2.51665331120667E-08 180              4.57872904520846E-08 180              
                1.23954377810442E-07 180              5.69212215311364E-07 -2.31381048216163E-20 3.81891034887565E-08 1.53118973596E-19 1.1293031852255E-10 180              
                1.9045413764632E-07 180              1.27620459848645E-07 180              5.24704980421505E-07 -180             5.28836772204321E-08 -180             
                6.1911215158575E-09 180              4.60129310119143E-07 6.34834551742338E-20 6.12547457690047E-07 1.0656236162314E-19 
                1.3514756250221E-08 -180             2.51665331120666E-08 -180             0.0005176139038644 179.999999999993 6.4279456674892E-09 2.05467588514676E-14 
                4.55958549222553E-09 180              2.79252079406005E-09 2.71350733162905E-15 3.82513539675325E-10 3.06998113885631E-15 9.90664308269039E-13 180              
                9.65060962568716E-10 -180             2.57902248098254E-09 -180             3.04646211359871E-09 -180             3.50732428211873E-09 3.39573801799703E-15 
                9.8973429097278E-11 -180             6.13723540712153E-09 3.42143826412959E-15 6.58021606253572E-09 2.53663024407333E-15 
                6.86356451743598E-07 -180             4.57872904520845E-08 -180             6.42794566748919E-09 1.32908458900785E-15 0.00144648929164226 -179.999999999998 
                2.9121935996592E-07 180              2.39035548183844E-06 -180             1.30853928264812E-07 1.64564846176731E-15 2.15461291348905E-10 -180             
                6.40428455875121E-08 -180             3.14776252526442E-08 1.4066206186544E-15 2.9354197549094E-07 -180             3.04955146679802E-06 -2.72305094595123E-17 
                8.69501089017829E-08 2.38234296799313E-15 2.49982892045499E-06 1.67834575408269E-16 4.51303019752395E-06 2.20832642862032E-15 
                4.19569297606479E-08 180              1.23954377810441E-07 180              4.55958549222552E-09 180              2.91219359965919E-07 -180             
                0.00771308652865232 -179.999999999999 4.9531542491296E-08 -1.22985199898279E-14 1.47394634004017E-09 180              2.39755347981155E-13 180              
                2.19056951519059E-09 180              6.26938066801214E-09 -7.44814708971894E-15 2.99696447998765E-08 -1.49484220843137E-15 2.88193381967449E-08 -1.77450951172555E-14 
                1.25326347284694E-09 -1.3889570716115E-14 5.50117029055073E-08 180              3.46871707728412E-08 180              
                2.02503303028422E-06 3.28486727447835E-20 5.69212215311363E-07 1.62376572410172E-20 2.79252079406006E-09 9.03071315977777E-15 2.39035548183845E-06 -180             
                4.95315424912962E-08 -1.50982368739011E-14 0.000352627403455208 180              5.20827973160337E-08 -1.01716792299497E-19 7.89950383109653E-10 -180             
                8.8446294709072E-08 8.52242770955441E-20 2.73240430878428E-08 -180             3.56926372102886E-07 -180             2.3737973109336E-07 -8.92748279445758E-19 
                3.36014112076676E-09 -180             5.826483107321E-07 -2.56560838070228E-19 1.94783908237113E-06 -1.45387301837013E-19 
                7.24202808108435E-08 1.67084453124924E-19 3.81891034887564E-08 1.08930847417205E-19 3.82513539675325E-10 3.68066616455938E-15 1.30853928264812E-07 1.13528642319177E-14 
                1.47394634004017E-09 180              5.20827973160338E-08 -4.23056269664467E-20 0.00357975908037533 180              1.89986716892846E-11 180              
                9.9996204309428E-09 2.07845273361352E-19 1.82391271273043E-09 180              2.9390867427187E-07 -180             2.3039361882167E-07 -4.41817676747428E-20 
                6.87765893960671E-10 2.47105726322319E-19 9.47808004372001E-08 180              5.42927729794596E-08 4.52238670996095E-19 
                2.82617945606275E-10 180              1.1293031852255E-10 180              9.90664308269042E-13 180              2.15461291348905E-10 180              
                2.39755347981159E-13 180              7.89950383109654E-10 180              1.89986716892846E-11 180              0.00509887125321307 -179.999999999999 
                1.06629752214557E-11 180              3.0568270070903E-12 -8.06455413891148E-15 6.744791813909E-11 2.59735081815451E-14 1.65923294198285E-10 180              
                1.01245591350328E-12 180              9.00801239978859E-11 -8.08928396331395E-15 1.98610669988301E-10 -8.41454814008827E-15 
                1.84483455926481E-07 180              1.9045413764632E-07 180              9.65060962568719E-10 -180             6.40428455875121E-08 -180             
                2.1905695151906E-09 180              8.84462947090716E-08 4.7891054704554E-20 9.99962043094281E-09 2.88347070880043E-19 1.06629752214557E-11 180              
                0.00527151271857096 180              2.56253644749182E-09 180              2.74065404192679E-07 -180             7.24625949826458E-08 -180             
                5.90926515256298E-10 -180             5.85513931271481E-08 8.70369582116639E-20 1.04123521472779E-07 1.53504463230373E-19 
                4.36653088872298E-08 180              1.27620459848645E-07 180              2.57902248098255E-09 180              3.14776252526441E-08 -2.47331245255813E-14 
                6.26938066801215E-09 1.46209805341325E-14 2.73240430878428E-08 180              1.82391271273043E-09 180              3.0568270070903E-12 8.39326083804184E-15 
                2.56253644749181E-09 180              0.00536252220294475 180              5.2062928432158E-08 -180             2.11004712029985E-07 -180             
                1.07463598209894E-09 -5.19447702552772E-20 5.40049829974852E-08 -180             2.99027404851805E-08 -180             
                1.6292837870745E-06 -180             5.24704980421507E-07 -180             3.04646211359871E-09 -180             2.9354197549094E-07 -180             
                2.99696447998765E-08 1.74501989364603E-14 3.56926372102886E-07 -180             2.93908674271871E-07 -180             6.74479181390902E-11 2.46044135402332E-14 
                2.74065404192679E-07 -180             5.20629284321582E-08 -180             0.00151981069545659 179.999999999984 1.98483043562566E-06 2.62916272422764E-14 
                2.65951985472565E-09 2.89935366997896E-14 5.82861603263569E-07 -180             1.54278974993487E-06 -180             
                5.10513095433789E-07 -180             5.28836772204328E-08 -180             3.50732428211874E-09 -6.37161618398719E-15 3.04955146679802E-06 -7.55385984857196E-16 
                2.88193381967448E-08 4.28609520560464E-14 2.37379731093359E-07 -2.06533304111639E-19 2.30393618821671E-07 -7.42390460848175E-20 1.65923294198285E-10 180              
                7.2462594982646E-08 -180             2.11004712029984E-07 -180             1.98483043562567E-06 3.03755895389726E-14 0.00737655368352275 180              
                5.7615326139845E-08 2.57205512497178E-20 2.09602415663777E-06 -7.78225814510306E-21 3.18151399435702E-06 -1.58908458057075E-20 
                6.89093176629498E-09 -180             6.19112151585748E-09 -180             9.89734290972781E-11 -180             8.69501089017831E-08 -2.97637357142587E-15 
                1.25326347284694E-09 -2.53573354431316E-14 3.36014112076676E-09 -180             6.87765893960672E-10 -1.05736421328286E-20 1.01245591350328E-12 180              
                5.90926515256298E-10 -180             1.07463598209894E-09 -1.46673389231415E-21 2.65951985472566E-09 3.54668442813806E-14 5.76153261398449E-08 4.55241863292747E-21 
                0.00167766998221164 180              3.67872313632896E-08 1.08023096053941E-21 1.48055737884769E-08 5.39145096671842E-20 
                6.2906406836946E-07 1.90805282726247E-20 4.60129310119141E-07 2.12051663533179E-20 6.13723540712154E-09 8.01581588373554E-16 2.49982892045499E-06 8.21492284918895E-15 
                5.50117029055073E-08 180              5.82648310732101E-07 -1.16879485573733E-19 9.47808004371999E-08 180              9.0080123997886E-11 -4.35754643162362E-15 
                5.8551393127148E-08 6.37875039044709E-20 5.40049829974852E-08 180              5.82861603263569E-07 -180             2.09602415663777E-06 2.11099466130896E-20 
                3.67872313632896E-08 8.02603248447163E-20 0.00332035193287095 180              3.00057830006471E-06 180              
                1.09293361917206E-06 4.53685695529379E-20 6.12547457690047E-07 3.94114371230167E-20 6.58021606253572E-09 8.91083215406571E-15 4.51303019752393E-06 5.07186754340138E-15 
                3.46871707728414E-08 180              1.94783908237113E-06 -4.39178860742628E-20 5.42927729794593E-08 3.72045886367712E-19 1.98610669988302E-10 -2.35915261356416E-15 
                1.04123521472779E-07 1.01532760988713E-19 2.99027404851806E-08 180              1.54278974993487E-06 -180             3.18151399435701E-06 4.88131192214635E-21 
                1.48055737884769E-08 2.74295613410718E-19 3.00057830006471E-06 180              0.00153928873632592 180              
! Gamma         !               59.9338536558492 0                76.2417860318037 0                59.933927723647  0                103.007183659178 0                
!               76.241106695061  0                76.2413237878676 0                76.2410096762301 0                103.00731959724  0                
!               103.007662713645 0                76.2413025410243 0                76.2412534015326 0                103.007320259575 0                
!               59.9337327230462 0                76.2416790923782 0                59.9344358506682 0                
! Port Impedance0                29.2358795501985 0                57.3477158797528 0                58.4265851367819 0                28.3561810218379 
!               0                57.4754130744194 0                28.740738611609  0                57.413387017246  0                56.6859683511954 
!               0                56.6800952748525 0                57.464989945873  0                28.7383348819682 0                28.3441933339878 
!               0                58.486631591095  0                57.3818421839094 0                29.1841674994664 

0.95                           0.000759630548791912 179.999999999999 3.18636487326529E-06 180              1.5074666783165E-08 -180             7.61080825651816E-07 180              
                4.68011590307644E-08 180              2.19238422868214E-06 2.32810127745862E-14 7.89567852850698E-08 -2.05389661004517E-15 3.03890025552617E-10 180              
                1.7253435996707E-07 180              4.87267029825544E-08 -180             1.76743720009382E-06 180              5.66624904850645E-07 -180             
                8.03863438019679E-09 180              6.96516670369783E-07 -1.73571917586807E-15 1.20599218370571E-06 2.6613465516477E-14 
                3.1863648732653E-06 180              0.00104480270768748 -180             2.68633215116376E-08 -180             4.93740243629557E-08 180              
                1.33711393193458E-07 180              6.17526836855241E-07 2.69431159661271E-14 4.18811424225336E-08 1.27567937612713E-19 1.22252655045226E-10 -180             
                1.97952617068554E-07 180              1.37411414058961E-07 -180             5.71085053464697E-07 -180             5.70894757719741E-08 180              
                7.0555214668905E-09 180              5.0338720155118E-07 -5.20240141965836E-20 6.77414864717078E-07 2.44541128149652E-14 
                1.5074666783165E-08 180              2.68633215116377E-08 -180             0.000516938857664573 179.999999999995 7.25154079422715E-09 3.13022936012705E-15 
                5.07417012492566E-09 180              3.21651730675986E-09 2.81682959786532E-14 4.4381313445365E-10 3.35983194062776E-15 1.13691673565388E-12 -180             
                1.0738446412546E-09 -180             2.88846700881893E-09 -180             3.50167111607761E-09 -180             4.01050441310134E-09 4.46665954224293E-14 
                1.16630120545925E-10 -180             6.99969926054034E-09 2.7254709806397E-15 7.6699875303131E-09 2.94841975854144E-14 
                7.61080825651815E-07 180              4.93740243629567E-08 180              7.25154079422715E-09 2.86646006843065E-15 0.00143226614129532 180              
                3.09536314855204E-07 180              2.53013081865888E-06 -180             1.42098015198771E-07 2.22362767062102E-19 2.3270363257515E-10 180              
                6.98862013557895E-08 -180             3.4832494972646E-08 1.21675299599153E-14 3.22108930219656E-07 180              3.23626014898426E-06 3.02694436104988E-14 
                9.50165265922469E-08 1.01068077160819E-19 2.60050578281325E-06 -6.70673309809223E-20 4.83339483993178E-06 1.8907601366192E-14 
                4.68011590307645E-08 180              1.33711393193458E-07 180              5.07417012492566E-09 180              3.09536314855205E-07 180              
                0.00765774290552501 -179.999999999999 5.27518594325147E-08 8.68896615701549E-15 1.65006753925846E-09 180              2.24121107048671E-13 180              
                2.40027635865585E-09 180              6.92241529743042E-09 1.42950242471301E-14 3.3455607554009E-08 -9.06311525791436E-15 3.18910571920265E-08 -4.11399834837078E-14 
                1.42453735690799E-09 -4.255323645412E-15 6.04865534706182E-08 180              3.89975291084429E-08 180              
                2.19238422868214E-06 8.65578255435921E-15 6.1752683685524E-07 2.55372406848343E-14 3.21651730675985E-09 2.90847549327678E-14 2.53013081865887E-06 -180             
                5.27518594325142E-08 -4.75983213519996E-14 0.000349897220800921 179.999999999937 5.66858515952162E-08 2.44345335406356E-14 8.37879491124561E-10 -180             
                9.47596780913887E-08 2.45829089803101E-14 3.06106339663762E-08 -180             3.86992398646772E-07 -180             2.59855643495958E-07 6.08235193540561E-14 
                3.85012677199014E-09 -180             6.32022283249666E-07 2.42370487280317E-14 2.10534798570036E-06 5.09737303507442E-14 
                7.895678528507E-08 -1.35913298696225E-14 4.18811424225336E-08 1.37244348513693E-19 4.43813134453649E-10 2.85112199109589E-15 1.42098015198771E-07 1.6696903736362E-19 
                1.65006753925846E-09 180              5.66858515952161E-08 2.07683843394559E-14 0.00355291563491578 180              2.07701902824787E-11 -180             
                1.05916881076233E-08 1.70642668457397E-20 2.02097539179755E-09 -180             3.13360645310022E-07 180              2.47141108641134E-07 1.45040002429183E-14 
                7.76269929775254E-10 4.66722207910753E-19 9.9467325191911E-08 180              7.00732052847722E-08 2.39766831364937E-14 
                3.03890025552617E-10 180              1.22252655045226E-10 -180             1.13691673565388E-12 -180             2.32703632575151E-10 180              
                2.24121107048669E-13 180              8.37879491124561E-10 -180             2.07701902824787E-11 -180             0.00507941675038082 180              
                1.1115762025769E-11 -180             3.43054874857146E-12 1.57644237638833E-14 7.32334050795426E-11 -1.93926549918717E-19 1.81423535397241E-10 -180             
                1.14417172966491E-12 -180             9.4656980931669E-11 -4.13777831276056E-19 2.02035127054993E-10 2.82712489332303E-14 
                1.7253435996707E-07 180              1.97952617068554E-07 -180             1.07384464125461E-09 -180             6.98862013557896E-08 180              
                2.40027635865585E-09 180              9.47596780913888E-08 3.05399133816813E-14 1.05916881076233E-08 2.49744352336636E-20 1.1115762025769E-11 -180             
                0.00525659893295327 180              2.81714887109647E-09 -180             2.89156212584329E-07 -180             7.85375571584575E-08 -180             
                6.77100133835389E-10 -180             6.33501670994753E-08 -1.32368421326059E-19 1.11901857895788E-07 2.21501881793242E-14 
                4.87267029825543E-08 -180             1.37411414058961E-07 -180             2.88846700881893E-09 180              3.4832494972646E-08 1.08122745431407E-14 
                6.92241529743039E-09 -5.42317024773704E-14 3.06106339663761E-08 -180             2.02097539179755E-09 180              3.43054874857146E-12 6.155081606368E-15 
                2.81714887109646E-09 -180             0.00532878636542522 179.999999999998 5.56650215654236E-08 -180             2.24667997878286E-07 -180             
                1.22400441725947E-09 1.34700862017646E-14 5.93045705707663E-08 180              3.36068642546803E-08 -180             
                1.76743720009382E-06 180              5.71085053464696E-07 -180             3.50167111607761E-09 -180             3.22108930219655E-07 -180             
                3.3455607554009E-08 -6.96806273647122E-14 3.86992398646773E-07 -180             3.13360645310022E-07 180              7.32334050795427E-11 -1.94268300913836E-19 
                2.8915621258433E-07 -180             5.56650215654237E-08 -180             0.0015062861378381 180              2.10195761313525E-06 1.83129624381298E-14 
                3.06185012818344E-09 7.59989415231537E-19 6.31584098950057E-07 180              1.67639501274243E-06 -180             
                5.66624904850645E-07 180              5.70894757719748E-08 -180             4.01050441310135E-09 9.30083261771709E-15 3.23626014898425E-06 1.31041606370052E-14 
                3.18910571920264E-08 -6.11098980453571E-14 2.59855643495959E-07 3.9536586639383E-14 2.47141108641135E-07 9.49020343214903E-15 1.81423535397241E-10 -180             
                7.85375571584573E-08 -180             2.24667997878287E-07 -180             2.10195761313525E-06 1.01503931460091E-14 0.00734801739254554 179.999999999999 
                6.30898043167094E-08 1.35238480239519E-14 2.18459405986936E-06 7.68921900520149E-15 3.41464484289973E-06 3.4073503307159E-14 
                8.03863438019679E-09 180              7.05552146689051E-09 -180             1.16630120545924E-10 -180             9.50165265922472E-08 5.24520291401428E-20 
                1.42453735690798E-09 -7.37872615706253E-14 3.85012677199014E-09 -180             7.76269929775254E-10 1.84465061539331E-19 1.14417172966491E-12 180              
                6.77100133835389E-10 -180             1.22400441725947E-09 2.39075643664375E-14 3.06185012818345E-09 -1.64903722724112E-20 6.30898043167094E-08 4.52191208368266E-15 
                0.0016576697385805 180              3.93359733298294E-08 -2.64418622891664E-20 1.65582026668671E-08 2.79546190965518E-14 
                6.96516670369783E-07 -1.49942978448798E-14 5.03387201551179E-07 -2.43375945858483E-20 6.99969926054035E-09 2.05203300938525E-15 2.60050578281324E-06 -6.39414077762145E-20 
                6.0486553470618E-08 180              6.32022283249667E-07 2.66618578982372E-14 9.94673251919108E-08 180              9.46569809316687E-11 -4.2878414970624E-19 
                6.3350167099475E-08 -1.75331298781161E-19 5.93045705707663E-08 -180             6.31584098950057E-07 180              2.18459405986936E-06 2.98570069153957E-14 
                3.93359733298294E-08 9.45238849272775E-20 0.00330692901998864 180              3.12990873212672E-06 -180             
                1.20599218370571E-06 2.3396502296504E-14 6.77414864717078E-07 3.19318578918242E-14 7.66998753031308E-09 3.3544948586809E-14 4.83339483993177E-06 3.09510810747865E-14 
                3.89975291084429E-08 180              2.10534798570036E-06 5.97906783992371E-14 7.00732052847725E-08 3.09961467563582E-14 2.02035127054992E-10 3.05001921694038E-14 
                1.11901857895788E-07 3.09871874546432E-14 3.36068642546803E-08 -180             1.67639501274243E-06 -180             3.41464484289973E-06 7.15818272093456E-14 
                1.65582026668672E-08 3.09049229435347E-14 3.12990873212671E-06 -180             0.00153884378000435 179.999999999983 
! Gamma         !               59.5939223012498 0                75.9748556992771 0                59.5939967915391 0                102.809769217727 0                
!               75.9741739757287 0                75.9743918312816 0                75.974076616025  0                102.809905416816 0                
!               102.810249192065 0                75.9743705097886 0                75.9743211976478 0                102.809906080423 0                
!               59.593800678629  0                75.9747483841297 0                59.5945078169499 0                
! Port Impedance0                31.0361233995244 0                60.7463387626177 0                62.0242869282188 0                29.9889978131056 
!               0                60.8816438218392 0                30.4440352015372 0                60.8159216072742 0                59.9500814979473 
!               0                59.9438698675537 0                60.8706026806059 0                30.4414849831567 0                29.9763197042184 
!               0                62.0880340773252 0                60.7825239252232 0                30.9812137697217 

1                              0.000754889557367688 -180             3.32335851896943E-06 -180             1.69243057148214E-08 180              8.49821459136836E-07 180              
                5.2615962296598E-08 -180             2.38621417265416E-06 -1.12870190107153E-14 8.65509602581992E-08 -1.65882277900776E-20 3.28169669393359E-10 180              
                1.57410952584487E-07 180              5.47957726732806E-08 180              1.9278137594957E-06 180              6.33385256906326E-07 -180             
                9.4735379007753E-09 180              7.765098908729E-07 -2.14369186916755E-20 1.33927640636369E-06 -4.04188558699151E-20 
                3.32335851896942E-06 180              0.00103808558734353 -180             2.87456156165975E-08 180              5.35462365712809E-08 -180             
                1.45000801852005E-07 -180             6.73678390455341E-07 9.5576500612374E-17 4.6211469747328E-08 3.37562657078168E-21 1.33022461236748E-10 -180             
                2.06079155948896E-07 180              1.4871117695115E-07 -180             6.25064216619978E-07 -180             6.19714874561448E-08 -180             
                8.11009841708178E-09 180              5.54100568825397E-07 2.80030181569726E-21 7.54225591973404E-07 4.5124905432264E-21 
                1.69243057148214E-08 180              2.87456156165975E-08 180              0.000516335226802167 -179.999999999984 8.24808415292575E-09 -8.46109868947793E-15 
                5.6856484568832E-09 -180             3.73972228927567E-09 -2.06277009691429E-14 5.19992651619222E-10 -8.22169547351701E-15 1.31650930680547E-12 180              
                1.20263513017389E-09 180              3.25884609306336E-09 180              4.06271416537268E-09 180              4.62578786706642E-09 -9.2481162829911E-15 
                1.38874778548199E-10 180              8.05278507954108E-09 -9.2332480023293E-15 9.03128576849218E-09 -9.31576019535858E-15 
                8.49821459136837E-07 180              5.35462365712806E-08 180              8.24808415292575E-09 -8.11085480071144E-15 0.00141708765480297 -180             
                3.30334671632861E-07 -180             2.68848634954848E-06 180              1.55165084274654E-07 9.67876280164016E-21 2.5256218862498E-10 -180             
                7.67119254270301E-08 180              3.88128667362618E-08 -2.46398054780226E-20 3.55730312180234E-07 -180             3.44775883623002E-06 1.68390540490777E-21 
                1.04419077677092E-07 1.47385532817478E-15 2.71140739888402E-06 6.66268876828684E-21 5.20084194904557E-06 1.02653974982438E-20 
                5.26159622965978E-08 180              1.45000801852005E-07 -180             5.6856484568832E-09 -180             3.3033467163286E-07 -180             
                0.00759934564433262 179.999999999999 5.63698343449265E-08 -4.41053024417252E-14 1.86260215732039E-09 -180             1.98460772336303E-13 180              
                2.65030763467903E-09 180              7.6930268209996E-09 2.90986364145776E-15 3.76366626649525E-08 -2.02286046025696E-15 3.5533525204064E-08 -1.21612047532113E-14 
                1.63277244032123E-09 2.29179052123064E-15 6.69378383439495E-08 -180             4.42008155005157E-08 -180             
                2.38621417265417E-06 -1.2307037282443E-14 6.7367839045534E-07 -1.29212319675E-14 3.73972228927568E-09 -2.11051903807402E-14 2.68848634954849E-06 180              
                5.63698343449265E-08 6.48377674591797E-14 0.000346975555324924 -179.999999999961 6.20470804228687E-08 -1.23486836802702E-14 8.91938968677026E-10 180              
                1.02009260335188E-07 -4.26379568864083E-14 3.45582975385467E-08 180              4.21837011355932E-07 180              2.86259598259782E-07 -1.24428117431958E-14 
                4.45217203540326E-09 180              6.89405525673896E-07 -1.26570493502012E-14 2.28745190135489E-06 -1.22404733870251E-14 
                8.65509602581994E-08 -3.97565040515051E-20 4.6211469747328E-08 -1.87960761785259E-20 5.1999265161922E-10 -1.40174280924293E-14 1.55165084274654E-07 2.64372097850895E-20 
                1.86260215732041E-09 -180             6.20470804228684E-08 -2.51990681585832E-14 0.00352471433559287 -180             2.28383345102241E-11 180              
                1.12565079872258E-08 -5.64157980643601E-14 2.25586361640904E-09 180              3.35440907899402E-07 180              2.66319748568359E-07 -1.38347853774019E-21 
                8.82697567077618E-10 -8.22007173180966E-15 1.04587597365091E-07 -180             8.92133021500779E-08 -3.90709455391563E-20 
                3.28169669393359E-10 180              1.33022461236747E-10 180              1.31650930680547E-12 180              2.5256218862498E-10 -180             
                1.98460772336304E-13 -180             8.91938968677024E-10 180              2.28383345102242E-11 180              0.00505894880113511 -180             
                1.16063805962698E-11 180              3.87933305500855E-12 -5.19634673849121E-20 7.99411777875416E-11 -3.21071669276328E-20 1.99523864533355E-10 180              
                1.30275496102974E-12 180              9.96325089912444E-11 4.27501153046046E-20 2.04636801123516E-10 6.46287276500194E-20 
                1.57410952584486E-07 180              2.06079155948895E-07 180              1.20263513017389E-09 180              7.67119254270302E-08 180              
                2.65030763467904E-09 -180             1.02009260335188E-07 -2.00793162817618E-14 1.12565079872258E-08 -1.74452510123649E-14 1.16063805962698E-11 180              
                0.00524092397122822 -179.999999999998 3.11797364917388E-09 180              3.06160125116202E-07 180              8.55995590569627E-08 180              
                7.82872617101461E-10 180              6.89099470447398E-08 -1.82683099475776E-14 1.20806507313512E-07 -1.46276403872283E-14 
                5.47957726732806E-08 180              1.4871117695115E-07 180              3.25884609306336E-09 -180             3.88128667362617E-08 -2.49956039038571E-20 
                7.69302682099958E-09 5.91037767442113E-14 3.45582975385465E-08 180              2.25586361640903E-09 180              3.87933305500856E-12 -7.15383129652637E-20 
                3.11797364917388E-09 180              0.00529327476174191 -180             5.97410721785498E-08 -180             2.40218832361575E-07 180              
                1.40600332707658E-09 -1.48055384678967E-14 6.55422357395598E-08 180              3.80804555202958E-08 180              
                1.9278137594957E-06 180              6.25064216619979E-07 -180             4.06271416537268E-09 180              3.55730312180234E-07 -180             
                3.76366626649526E-08 7.70381228615624E-14 4.21837011355932E-07 180              3.35440907899401E-07 180              7.99411777875417E-11 -1.78427846789592E-20 
                3.06160125116203E-07 180              5.974107217855E-08 -180             0.00149201869358539 -180             2.23467613354282E-06 -2.70740398083903E-22 
                3.55826537796343E-09 -4.84777629219648E-15 6.88158488790613E-07 180              1.83175188740064E-06 180              