! Touchstone file from project test_multiport
! Exported from HFSS 2019.2.0
!Data is not renormalized
# GHZ S MA
! Modal data exported
! Port[1] = 1:1
! Port[2] = 2:1
! Port[3] = 3:1
! Port[4] = 4:1
! Port[5] = 5:1
! Port[6] = 6:1
! Port[7] = 7:1
! Port[8] = 8:1
! Port[9] = 9:1
! Port[10] = 10:1
! Port[11] = 11:1
! Port[12] = 12:1
! Port[13] = 13:1
! Port[14] = 14:1
! Port[15] = 15:1
! Port[16] = 16:1
! Port[17] = 17:1
0.9                            0.000196511451458159 -180             3.05299135858937E-06 180              1.34743135419089E-08 -180             6.93486212769898E-07 180              
                4.22477302955529E-08 -180             2.0286729835495E-06 9.82258423953485E-21 8.08012978198018E-08 6.39123065352806E-20 2.70108518069713E-10 -180             
                1.7879763758735E-07 -180             3.95397557844837E-08 -180             1.55014865043648E-06 180              5.47527979166852E-07 180              
                6.89847503943528E-09 180              6.25491795771243E-07 7.02449675951693E-20 1.08935997818963E-06 5.79211377363373E-20 1.02588958698133E-07 4.5145181685746E-20 
                3.69628205788803E-08 1.00637693129831E-14 
                3.05299135858937E-06 180              0.000594322877706555 179.999999999997 2.50707007285545E-08 -180             4.4324853654574E-08 180              
                1.19814669019494E-07 180              5.68913256223995E-07 -5.04703699419152E-16 4.28823225058947E-08 -7.49218529023934E-16 1.04459451941641E-10 180              
                1.92200035603711E-07 -180             1.12608191661143E-07 180              5.0925662327895E-07 180              6.38984462599098E-08 180              
                6.19570421925337E-09 180              4.55728352929758E-07 -1.36256917718904E-15 6.05179571632819E-07 -1.06277940311227E-15 1.86571499818204E-07 -8.5020499528472E-16 
                3.61512243500655E-08 1.02322965565259E-14 
                1.34743135419089E-08 -180             2.50707007285546E-08 180              0.000342817319184174 179.999999999979 6.50743743001911E-09 9.90412662489643E-15 
                4.27903085422266E-09 -180             2.78967759928618E-09 1.01914078651498E-14 4.3018092877281E-10 9.63151055821657E-15 8.73104440323904E-13 -180             
                9.66100734347318E-10 -180             2.31845259876449E-09 -180             2.92765128968718E-09 -180             3.65063743093601E-09 1.05643123092174E-14 
                9.93449227853389E-11 -180             6.07593591536365E-09 9.92395063330694E-15 6.4663590082091E-09 9.84863048327815E-15 2.93139508387394E-09 9.3894354187176E-15 
                5.81008276711713E-10 2.04306162266683E-14 
                6.93486212769897E-07 180              4.43248536545739E-08 180              6.50743743001911E-09 6.46600875142265E-15 0.00010448475146374 -6.85310896041503E-22 
                2.77531157807885E-07 -180             2.43551269857533E-06 -180             1.50455699374286E-07 -4.72266898561917E-20 1.15222643711291E-10 180              
                6.57964963481271E-08 180              2.96497460033709E-08 1.44735265048629E-19 2.86569223474948E-07 -180             3.2933158642163E-06 -1.6301921786609E-15 
                8.74721233441752E-08 -1.61930129043788E-20 2.5301036111498E-06 -2.12113023534041E-20 4.58529875081987E-06 -1.84979249546023E-20 8.36302910947312E-08 180              
                2.06581356859476E-07 -180             
                4.22477302955529E-08 -180             1.19814669019495E-07 180              4.27903085422266E-09 -180             2.77531157807884E-07 -180             
                0.00139459911616402 -180             4.77615259061068E-08 -1.19506666581962E-21 1.38892587443539E-09 -180             1.61462392749492E-12 180              
                2.17766861819484E-09 180              5.36670041495679E-09 2.48362036276471E-20 2.74727187484723E-08 -7.3948693828695E-20 3.12101132846921E-08 -2.3567824365336E-14 
                1.19307847704079E-09 -4.8266046451544E-20 5.18100687756678E-08 -180             3.15719268273457E-08 -180             9.43654468867714E-09 1.4849088897189E-20 
                5.06583117149513E-09 -180             
                2.0286729835495E-06 1.18868684049899E-20 5.68913256223995E-07 -9.74283284220058E-15 2.78967759928618E-09 1.11141088543133E-14 2.43551269857534E-06 -180             
                4.77615259061069E-08 1.49295319606889E-20 0.000250430782882449 -180             5.73887182260827E-08 -3.00551431802333E-20 6.25295069652793E-10 180              
                8.75443894550835E-08 -2.92640844622464E-15 2.48574211218858E-08 180              3.48799423355281E-07 -180             2.49174062615971E-07 -1.32939995364132E-14 
                3.40484306521857E-09 -180             5.82578411997345E-07 -2.42400678205662E-20 1.93979351395474E-06 -1.06609611376645E-20 1.5835808182891E-08 -180             
                8.64210474830547E-09 1.4845355752937E-14 
                8.08012978198018E-08 3.6000475960014E-20 4.28823225058948E-08 -1.37693404635033E-14 4.30180928772811E-10 -4.80490968222933E-15 1.50455699374286E-07 -2.69555864364043E-20 
                1.3889258744354E-09 180              5.73887182260826E-08 -1.23879361758138E-20 0.000963644323572432 -180             2.3265858081164E-11 180              
                1.11912207283749E-08 -1.71202598011059E-14 2.03732206110415E-09 180              3.18211732823771E-07 -180             3.01561671908515E-07 8.62256258581756E-16 
                8.08652593095588E-10 -9.65539069830555E-20 1.11003304292036E-07 -180             1.08568697887365E-08 -5.29432104043482E-19 4.66312233154973E-09 -180             
                4.48894230922027E-09 180              
                2.70108518069713E-10 -180             1.04459451941641E-10 180              8.73104440323905E-13 -180             1.15222643711291E-10 180              
                1.61462392749493E-12 -180             6.25295069652792E-10 180              2.32658580811639E-11 180              0.000944042523352895 -180             
                1.19392079419743E-11 180              3.15383020627389E-12 -1.76191432337218E-19 6.78189426004612E-11 5.62433478597363E-20 1.58992042314871E-10 180              
                7.806961463017E-13 180              5.70880079981295E-11 9.7168560631592E-20 5.91302426185673E-11 1.41378498431594E-19 6.8303679680223E-12 4.65164651246367E-21 
                3.11498465101251E-12 -4.71371897326784E-15 
                1.7879763758735E-07 -180             1.92200035603711E-07 180              9.66100734347317E-10 -180             6.5796496348127E-08 -180             
                2.17766861819485E-09 -180             8.75443894550836E-08 3.32401437953503E-15 1.11912207283749E-08 2.00630659312891E-15 1.19392079419742E-11 -180             
                0.00136082911211066 179.999999999997 2.376260463744E-09 -180             2.45445145529939E-07 -180             7.54065271556495E-08 180              
                5.87459308483433E-10 -180             5.78992399114499E-08 3.19507632136089E-15 1.02906620559836E-07 2.89737311613825E-15 9.16330668874174E-09 2.90259674986986E-15 
                3.45532691558513E-09 9.33858128249195E-15 
                3.95397557844837E-08 -180             1.12608191661143E-07 180              2.31845259876449E-09 180              2.9649746003371E-08 9.7575130903016E-19 
                5.36670041495678E-09 1.40054955575018E-20 2.48574211218858E-08 180              2.03732206110416E-09 180              3.15383020627389E-12 -5.00621594787441E-19 
                2.37626046374399E-09 180              0.00078669438645651 -180             4.47622604706823E-08 180              1.97707858521514E-07 180              
                9.90939479966757E-10 5.44728152855774E-19 4.88019423341743E-08 180              2.71273207308092E-08 180              3.45713895706796E-08 -1.32207770587307E-20 
                1.13388169139384E-08 180              
                1.55014865043648E-06 180              5.0925662327895E-07 180              2.92765128968718E-09 180              2.86569223474948E-07 -180             
                2.74727187484722E-08 -6.50996492623167E-20 3.48799423355281E-07 -180             3.18211732823771E-07 -180             6.78189426004613E-11 9.80836306668384E-20 
                2.45445145529938E-07 -180             4.4762260470682E-08 180              0.00035620465911268 -180             2.0163470371356E-06 -1.67059569227753E-14 
                2.52428600442761E-09 -1.09599855657021E-18 5.56362122691989E-07 -180             1.48552432527642E-06 -180             2.00565421333819E-08 2.22658312627642E-19 
                1.22636852455062E-08 -180             
                5.47527979166853E-07 180              6.38984462599104E-08 -180             3.65063743093601E-09 4.24252059287157E-14 3.29331586421629E-06 -8.30450773348908E-15 
                3.12101132846923E-08 -8.77755498795671E-15 2.49174062615971E-07 -8.20126778465957E-15 3.01561671908515E-07 -8.90046059616067E-15 1.58992042314872E-10 180              
                7.54065271556495E-08 180              1.97707858521512E-07 180              2.0163470371356E-06 -9.11193217370521E-15 0.00110253822374939 -179.999999999997 
                6.19554767529361E-08 -8.60625794148609E-15 2.28131736621656E-06 -8.91147564801034E-15 3.37423722146132E-06 -9.39009251016703E-15 8.56154633352405E-08 180              
                9.602912999092E-07 180              
                6.89847503943526E-09 180              6.19570421925336E-09 180              9.93449227853387E-11 -180             8.74721233441753E-08 -2.32028270457308E-20 
                1.19307847704079E-09 -2.37358082646011E-20 3.40484306521857E-09 -180             8.08652593095588E-10 -2.39713047807889E-19 7.80696146301699E-13 180              
                5.87459308483434E-10 180              9.9093947996676E-10 1.16691475580837E-19 2.52428600442761E-09 -5.45594659341932E-19 6.19554767529359E-08 -4.95287107154137E-15 
                0.000820098689437665 -180             3.73516918416768E-08 -3.90220353033738E-20 1.4907024976093E-08 -1.51740596135027E-19 1.05772683899659E-09 6.54437351977109E-20 
                1.31795938053508E-10 -6.90609581200077E-15 
                6.25491795771244E-07 1.61118617409412E-20 4.55728352929755E-07 -1.80242501689581E-15 6.07593591536366E-09 5.65911153143127E-15 2.53010361114978E-06 -8.44208799790405E-21 
                5.1810068775668E-08 180              5.82578411997345E-07 -4.51157317561247E-21 1.11003304292036E-07 -180             5.70880079981295E-11 2.23002994570548E-20 
                5.789923991145E-08 -1.25412366868582E-15 4.88019423341742E-08 180              5.56362122691991E-07 -180             2.28131736621656E-06 2.1324769585116E-15 
                3.73516918416768E-08 -1.15846033979935E-20 0.000713320039166021 -180             2.98979254175417E-06 -180             6.42514484305759E-08 180              
                9.73961907082505E-08 180              
                1.08935997818963E-06 2.70141968265023E-20 6.0517957163282E-07 -6.63636735940791E-15 6.4663590082091E-09 1.35003211909095E-14 4.58529875081986E-06 -1.56607918857004E-20 
                3.15719268273457E-08 -180             1.93979351395474E-06 -4.31778930527463E-21 1.08568697887362E-08 -6.84637886509995E-19 5.91302426185671E-11 6.92604316461258E-20 
                1.02906620559836E-07 8.86297834223424E-15 2.71273207308093E-08 180              1.48552432527642E-06 -180             3.37423722146132E-06 -1.50510679909387E-15 
                1.4907024976093E-08 -9.29350447397007E-20 2.98979254175417E-06 -180             0.00059671815409601 -180             6.21977265552794E-08 180              
                6.10358159615428E-08 -180             
                1.02588958698133E-07 6.63656829896267E-20 1.86571499818204E-07 -1.04014840237446E-14 2.93139508387394E-09 2.19229653886957E-14 8.36302910947313E-08 180              
                9.43654468867715E-09 3.52665328915621E-20 1.58358081828909E-08 -180             4.66312233154973E-09 180              6.8303679680223E-12 1.10569298047581E-20 
                9.16330668874173E-09 -4.71820776331771E-15 3.45713895706798E-08 1.73428109255226E-21 2.00565421333819E-08 1.84234055530905E-19 8.56154633352404E-08 180              
                1.05772683899659E-09 8.15046698233599E-20 6.42514484305758E-08 180              6.21977265552795E-08 180              0.000746519273838175 -180             
                9.53551618757482E-09 -180             
                3.69628205788804E-08 7.13375321517402E-15 3.61512243500655E-08 -2.11040771965327E-14 5.81008276711713E-10 -1.33841383629713E-14 2.06581356859476E-07 -180             
                5.06583117149513E-09 -180             8.64210474830548E-09 3.22337382527839E-15 4.48894230922028E-09 -180             3.11498465101252E-12 7.00407604741295E-15 
                3.45532691558513E-09 2.05068116444659E-14 1.13388169139384E-08 -180             1.22636852455062E-08 -180             9.60291299909202E-07 -180             
                1.31795938053507E-10 2.50022838757548E-14 9.73961907082506E-08 -180             6.10358159615427E-08 -180             9.53551618757486E-09 -180             
                0.00301283301865418 179.999999999998 
! Gamma         !               59.9338041726224 0                76.2417468060064 0                59.934035818657  0                103.007165346535 0                
!               76.2412463250201 0                76.2412446684785 0                76.2409058555442 0                103.007320875077 0                
!               103.007319459309 0                76.241299958214  0                76.2412535640471 0                103.007123456251 0                
!               59.9337580372147 0                76.241691182248  0                59.9341097879668 0                103.007873035402 0                
!               76.2416781525852 0                
! Port Impedance0                29.24212750127   0                57.3772833586348 0                58.4290409197004 0                28.3558491401017 
!               0                57.472643438184  0                28.7423311191273 0                57.430996461324  0                56.6878453610442 
!               0                56.6824018198337 0                57.4649495918211 0                28.7384231068618 0                28.3544053785015 
!               0                58.4909561309578 0                57.3942550643322 0                29.2238655535996 0                56.6747747335896 
!               0                57.3483156810667 

0.95                           0.000192324231578778 -179.999999999941 3.17886696367392E-06 180              1.50323560903632E-08 180              7.69153693954953E-07 180              
                4.70326762557669E-08 180              2.1961860388652E-06 -2.46470641705756E-14 8.79696980136796E-08 -1.29362620207773E-14 2.90825173595789E-10 180              
                1.66553324169963E-07 -180             4.42016526452974E-08 -180             1.68576466007249E-06 180              6.0749058633504E-07 180              
                8.04655427288649E-09 180              6.92548948565452E-07 -7.81190587307944E-16 1.20220202688706E-06 -2.39717736940636E-14 1.11150629206357E-07 -1.32064411206747E-14 
                4.18197486442202E-08 -1.30075403005996E-14 
                3.17886696367392E-06 180              0.000591533365423724 -180             2.67604999881101E-08 -180             4.79987173451438E-08 180              
                1.29200592208845E-07 -180             6.17107026599754E-07 -1.39539190583472E-14 4.69334575480218E-08 4.64704172801387E-20 1.13163456473124E-10 -180             
                1.99753363883164E-07 180              1.2155570687853E-07 180              5.55162208582947E-07 -180             6.90909666415355E-08 -180             
                7.06140816695655E-09 180              4.9860151305831E-07 2.18668283531022E-14 6.69185096655844E-07 -1.15389990086576E-14 1.9344757604146E-07 2.40351152128548E-20 
                3.97295462569282E-08 1.15063487867898E-20 
                1.50323560903633E-08 180              2.67604999881102E-08 -180             0.000342775821074448 -180             7.33949170264169E-09 -1.78611821546603E-15 
                4.76377352273976E-09 -180             3.21229104649864E-09 -4.74751501077798E-15 4.98231361681608E-10 5.73897778698535E-21 1.00300324689254E-12 -180             
                1.07544994909338E-09 180              2.60027885695766E-09 -180             3.36505631882817E-09 -180             4.17552833333386E-09 -6.93182404544855E-20 
                1.17068962572997E-10 180              6.93116536074128E-09 1.31698398739146E-14 7.53850907863139E-09 -1.24073889874168E-14 2.99580884560384E-09 7.62775922472115E-21 
                6.5784831193816E-10 5.72334780391954E-21 
                7.69153693954954E-07 180              4.79987173451437E-08 180              7.33949170264166E-09 -3.01112576433378E-15 0.000113804937938333 -4.64560159694706E-11 
                2.95060889953052E-07 180              2.57799790746765E-06 180              1.63121832834727E-07 -2.69603451544672E-15 1.26018771188702E-10 180              
                7.17841671785085E-08 180              3.2847991313256E-08 8.11127105476848E-15 3.14762878350792E-07 180              3.49478340889002E-06 -3.46406261994524E-15 
                9.55968113831796E-08 -2.89935304443636E-15 2.632368601577E-06 5.46695527373022E-15 4.91057207217136E-06 -1.72833619298485E-15 9.05896980114192E-08 180              
                2.2257142362557E-07 180              
                4.70326762557669E-08 180              1.29200592208844E-07 -180             4.76377352273977E-09 -180             2.95060889953052E-07 180              
                0.00138798739783885 -180             5.08728690979911E-08 -4.25864653997478E-15 1.55523248200488E-09 180              1.71642432208062E-12 -180             
                2.38033617238304E-09 180              5.93485626167205E-09 5.06943016355412E-15 3.07023649471271E-08 -7.13281732420662E-20 3.44888396674453E-08 5.75196575004863E-20 
                1.35675967296333E-09 -1.46589636601492E-20 5.69858695761327E-08 -180             3.55217464412656E-08 180              1.02632105959167E-08 2.58238698471128E-21 
                5.59799385220062E-09 180              
                2.1961860388652E-06 -1.36383405337106E-14 6.17107026599753E-07 -1.88058701406479E-15 3.21229104649864E-09 -1.92226446855307E-15 2.57799790746766E-06 -180             
                5.08728690979912E-08 -2.27191069201592E-15 0.000249011037380287 -179.999999999994 6.24276355357261E-08 -2.27009772840478E-15 6.66427815804022E-10 180              
                9.38496223760111E-08 -1.20830231841405E-14 2.78821786530661E-08 180              3.78942408632252E-07 180              2.72825393885185E-07 -1.47765334192344E-15 
                3.90006548104104E-09 180              6.31946061998269E-07 2.31538234585385E-14 2.09674626505159E-06 -4.26104743395274E-15 1.75294527457222E-08 180              
                9.7650071238299E-09 -1.50741823722505E-15 
                8.79696980136798E-08 -1.55093144865437E-14 4.69334575480217E-08 5.55517499954589E-20 4.98231361681609E-10 -3.50877097572336E-20 1.63121832834727E-07 -1.57305723946389E-14 
                1.55523248200488E-09 180              6.24276355357262E-08 -2.16179433899627E-14 0.000959056895257882 -180             2.52559293130503E-11 180              
                1.1839262421847E-08 8.86001721668772E-16 2.25295797944251E-09 -180             3.39308663128678E-07 180              3.22644511008701E-07 -4.6496282878197E-20 
                9.11321020169035E-10 -3.20166628952232E-19 1.16310825400065E-07 -180             2.60047408783275E-08 -1.80899728630983E-14 5.1538885240769E-09 180              
                4.9463138110403E-09 180              
                2.90825173595788E-10 180              1.13163456473125E-10 -180             1.00300324689254E-12 -180             1.26018771188702E-10 180              
                1.71642432208061E-12 -180             6.66427815804022E-10 -180             2.52559293130503E-11 -180             0.000940701449055226 180              
                1.25003440296444E-11 180              3.53164999443387E-12 3.79854647165076E-15 7.34886934190077E-11 -1.44284797726019E-20 1.73916004445191E-10 -180             
                8.83211356260857E-13 180              5.98240936535317E-11 -6.75078367750853E-15 5.59213993963399E-11 -1.48327087006397E-14 7.55691683650189E-12 7.81193862371918E-20 
                3.46978766319142E-12 -7.592704093241E-21 
                1.66553324169962E-07 180              1.99753363883164E-07 180              1.07544994909338E-09 180              7.17841671785084E-08 180              
                2.38033617238305E-09 180              9.3849622376011E-08 -8.9604154895398E-15 1.18392624218471E-08 -9.95915208248491E-16 1.25003440296444E-11 180              
                0.00135679203082695 179.999999999999 2.61504332191343E-09 -180             2.59725910851033E-07 180              8.1741660951345E-08 180              
                6.73015506895151E-10 180              6.26476423172389E-08 1.16342346595849E-14 1.10659046716542E-07 -5.52964165182642E-15 9.83880178472968E-09 -7.41440639350731E-16 
                3.83584019723137E-09 -4.11295215389342E-16 
                4.42016526452973E-08 180              1.21555706878529E-07 180              2.60027885695766E-09 180              3.28479913132561E-08 2.38383719226965E-14 
                5.93485626167204E-09 -2.70872559875529E-15 2.78821786530661E-08 180              2.2529579794425E-09 180              3.53164999443386E-12 -2.44293403821421E-15 
                2.61504332191341E-09 180              0.000780598891060413 -179.999999999995 4.8081883925628E-08 180              2.10816269367838E-07 180              
                1.12997848743606E-09 -3.08675673418737E-15 5.36833022886653E-08 -180             3.05151272339448E-08 180              3.66978318438466E-08 -2.99337822808449E-15 
                1.23253981780078E-08 180              
                1.68576466007249E-06 180              5.55162208582946E-07 -180             3.36505631882818E-09 -180             3.14762878350792E-07 180              
                3.07023649471271E-08 -7.11437483217623E-20 3.78942408632251E-07 180              3.39308663128678E-07 180              7.34886934190078E-11 -1.36343847606678E-19 
                2.59725910851033E-07 180              4.8081883925628E-08 180              0.000353086363734545 -180             2.14076115866984E-06 6.0200682960699E-21 
                2.91066375457906E-09 -2.07123854182903E-20 6.03873925552394E-07 -180             1.61682001424057E-06 180              2.20975501767198E-08 1.27450157825047E-19 
                1.36463947490355E-08 180              
                6.07490586335043E-07 180              6.90909666415362E-08 -180             4.17552833333384E-09 -6.34468463934881E-20 3.49478340889001E-06 -4.77054389913656E-15 
                3.44888396674453E-08 2.12420176767309E-20 2.72825393885184E-07 -2.1871408836341E-14 3.226445110087E-07 -3.52023950934517E-21 1.73916004445191E-10 180              
                8.17416609513449E-08 180              2.10816269367836E-07 -180             2.14076115866984E-06 -1.5013965881377E-20 0.00109220906543828 -180             
                6.78051764404168E-08 -5.62082897813832E-21 2.37603910138984E-06 2.50640446068657E-15 3.62104060921125E-06 3.27659189593709E-15 9.2132128520122E-08 180              
                1.01220525727229E-06 180              
                8.04655427288651E-09 180              7.06140816695657E-09 180              1.17068962572997E-10 -180             9.55968113831797E-08 -1.02061959368277E-14 
                1.35675967296333E-09 1.38830898561711E-19 3.90006548104104E-09 180              9.11321020169032E-10 -1.89445014494222E-19 8.83211356260854E-13 180              
                6.73015506895151E-10 180              1.12997848743606E-09 5.44145356695758E-15 2.91066375457907E-09 -1.40116498087034E-19 6.78051764404169E-08 -1.74144844817729E-20 
                0.000811809655340889 -180             3.99411102768882E-08 1.31258439364674E-14 1.66731722030922E-08 5.9805526107201E-15 1.17594992614422E-09 3.49700327627177E-20 
                4.89700229481781E-11 2.08940181007949E-18 
                6.92548948565451E-07 -1.87645951671494E-15 4.98601513058311E-07 9.11674276867528E-15 6.93116536074127E-09 9.28625814082776E-15 2.632368601577E-06 1.13128211720289E-17 
                5.69858695761329E-08 -180             6.31946061998269E-07 -5.54133692437739E-15 1.16310825400065E-07 -180             5.98240936535316E-11 8.98863289594938E-15 
                6.26476423172389E-08 6.60238667436954E-15 5.36833022886652E-08 -180             6.03873925552393E-07 -180             2.37603910138984E-06 9.48143052851314E-15 
                3.99411102768881E-08 8.78814346330056E-15 0.000710476099249013 179.99999999999  3.11810665844054E-06 -180             6.95428440004937E-08 -180             
                1.02453730581278E-07 -180             
                1.20220202688706E-06 -1.90467755926459E-14 6.69185096655843E-07 -3.27014476163412E-15 7.53850907863139E-09 -4.54705454470452E-15 4.91057207217136E-06 -2.03841758815139E-14 
                3.55217464412656E-08 180              2.09674626505159E-06 -1.17471748818506E-14 2.60047408783272E-08 -4.13205981760858E-15 5.59213993963402E-11 -3.38209728957824E-15 
                1.10659046716542E-07 -8.93536958818372E-15 3.05151272339449E-08 180              1.61682001424057E-06 180              3.62104060921126E-06 -4.85228328024182E-15 
                1.66731722030922E-08 -3.15427044942301E-15 3.11810665844054E-06 -180             0.000594294358784109 -179.999999999997 6.9332771042743E-08 180              
                6.71649957216042E-08 180              
                1.11150629206357E-07 -1.33671615155602E-14 1.9344757604146E-07 2.56587890646209E-20 2.99580884560383E-09 7.73947670616122E-21 9.05896980114188E-08 180              
                1.02632105959167E-08 1.59936961022719E-21 1.75294527457223E-08 -180             5.1538885240769E-09 180              7.55691683650188E-12 6.14013631001598E-20 
                9.8388017847297E-09 -6.86429273315345E-15 3.66978318438466E-08 1.87739849601299E-15 2.20975501767199E-08 1.10897370798764E-19 9.21321285201222E-08 180              
                1.17594992614422E-09 2.61697720452684E-21 6.95428440004937E-08 -180             6.93327710427429E-08 180              0.000744644910872005 -180             
                1.01212267601541E-08 -180             
                4.18197486442202E-08 1.08850765181333E-14 3.97295462569282E-08 -6.03263025196512E-20 6.57848311938158E-10 -1.86633188330518E-20 2.2257142362557E-07 180              
                5.59799385220061E-09 -180             9.7650071238299E-09 -6.8670822033989E-15 4.9463138110403E-09 180              3.46978766319141E-12 -7.91007407908063E-20 
                3.83584019723138E-09 1.35502955872195E-15 1.23253981780078E-08 -180             1.36463947490356E-08 180              1.01220525727228E-06 -180             
                4.897002294818E-11 7.43610892976268E-19 1.02453730581278E-07 180              6.71649957216043E-08 -180             1.01212267601541E-08 180              
                0.00299756858156064 -180             
! Gamma         !               59.593872535764  0                75.9748163356636 0                59.5941055031342 0                102.80975086992  0                
!               75.9743140962722 0                75.9743124339105 0                75.9739724305673 0                102.809906697106 0                
!               102.80990527862  0                75.9743679179037 0                75.9743213607331 0                102.809708899198 0                
!               59.5938261371934 0                75.9747605164762 0                59.5941798943715 0                102.810459917676 0                
!               75.9747474410348 0                
! Port Impedance0                31.0427565023393 0                60.7776821324351 0                62.0268946097065 0                29.9886468390929 
!               0                60.8787109749926 0                30.4457222657479 0                60.8345746724898 0                59.9520669095574 
!               0                59.946309227276  0                60.8705599522862 0                30.441578516781  0                29.9871199186712 
!               0                62.092623976921  0                60.7956727795819 0                31.0233665284677 0                59.9382428960934 
!               0                60.7469838728053 

1                              0.000187615978276878 180              3.31502030445668E-06 -180             1.68802814381807E-08 180              8.59031886479599E-07 -180             
                5.27677189732576E-08 180              2.39019305407518E-06 2.65208819697577E-21 9.62880363323608E-08 -1.41525858071852E-20 3.1452173304298E-10 180              
                1.51101746918242E-07 180              4.97992372504056E-08 -180             1.84358696012147E-06 180              6.7882346986759E-07 -180             
                9.48186252293088E-09 180              7.7207036376138E-07 -2.15908695213943E-20 1.33524571129609E-06 -2.41456642324694E-20 1.21035247329791E-07 -1.02692286976348E-20 
                4.77089866901314E-08 1.77152088830502E-14 