! Touchstone file from project test_multiport
! Exported from HFSS 2019.2.0
!Data is not renormalized
# GHZ S MA
! Modal data exported
! Port[1] = 1:1
! Port[2] = 2:1
! Port[3] = 3:1
0.9                            0.000485278626537133 179.999999999991 2.40157026901557E-06 -180             1.18842318258165E-08 -180             
                2.40157026901557E-06 -180             0.000464664418279415 180              2.3287520854782E-08 180              
                1.18842318258165E-08 -180             2.3287520854782E-08 180              0.000448916563503654 180              
! Gamma         !               59.9340040754987 0                76.2416199092279 0                59.9339116521817 0                
! Port Impedance0                29.2215029032767 0                57.3967858132172 0                58.4296987705966 

0.95                           0.000481571309975948 180              2.49923743888593E-06 180              1.32545349511108E-08 -180             
                2.49923743888593E-06 180              0.000462825293540137 180              2.48612872910225E-08 -180             
                1.32545349511108E-08 -180             2.48612872910225E-08 -180             0.000447692757204687 179.999999999999 
! Gamma         !               59.5940735789098 0                75.9746889930445 0                59.5939806284003 0                
! Port Impedance0                31.0208609166151 0                60.7983502594655 0                62.0275888912267 

1                              0.000477464873392397 179.999999999996 2.60427267024146E-06 -180             1.48796217331569E-08 -180             
                2.60427267024146E-06 180              0.000460868168731254 -180             2.66081672124635E-08 180              
                1.48796217331569E-08 180              2.66081672124635E-08 180              0.000446454043281364 -179.999999999981 
! Gamma         !               59.2336566806164 0                75.692310346682  0                59.2335631645334 0                
! Port Impedance0                32.8522221375031 0                64.2370069611421 0                65.6894695399495 

1.05                           0.000472907314816874 179.999999999986 2.71645198476209E-06 -180             1.68149316598887E-08 180              
                2.71645198476209E-06 180              0.000458787510097614 -180             2.85389678359537E-08 180              
                1.68149316598887E-08 180              2.85389678359536E-08 180              0.000445211493147012 -179.999999999965 
! Gamma         !               58.8523770004895 0                75.3943103985241 0                58.8522828785542 0                
! Port Impedance0                34.7183090110668 0                67.7154421269485 0                69.4207842162052 

1.1                            0.000467835520215787 179.999999999988 2.83526350484919E-06 -180             1.91285988759226E-08 -180             
                2.83526350484919E-06 -180             0.000456576486519644 180              3.06612618188733E-08 -180             
                1.91285988759226E-08 -180             3.06612618188732E-08 -180             0.00044397796581086 179.999999999997 
! Gamma         !               58.4498262639019 0                75.0805031425709 0                58.4497314937369 0                
! Port Impedance0                36.622055078746  0                71.2364769376618 0                73.227398497296  

