! Touchstone file from project test_multiport
! Exported from HFSS 2019.2.0
!Data is not renormalized
# GHZ S MA
! Modal data exported
! Port[1] = 1:1
! Port[2] = 2:1
! Port[3] = 3:1
! Port[4] = 4:1
! Port[5] = 5:1
! Port[6] = 6:1
! Port[7] = 7:1
! Port[8] = 8:1
! Port[9] = 9:1
! Port[10] = 10:1
! Port[11] = 11:1
! Port[12] = 12:1
! Port[13] = 13:1
! Port[14] = 14:1
0.9                            0.000763878118487105 -180             3.06000227181867E-06 -180             1.35879629920082E-08 180              6.79601606383315E-07 180              
                3.75228761884699E-08 -180             2.02454228873782E-06 -1.48793614075656E-20 7.15557935935599E-08 4.60724113857544E-15 2.10385236097176E-10 180              
                1.854012656561E-07 -180             4.44744444996929E-08 -180             1.61401891614704E-06 180              5.17739075542767E-07 -180             
                6.9563508945199E-09 180              6.24633720344503E-07 3.56883350272708E-20 
                3.06000227181867E-06 -180             0.00105116530689209 -180             2.52883549596932E-08 180              4.01523547730355E-08 180              
                1.07878875328354E-07 -180             5.69008684446653E-07 -1.07161189895447E-20 3.78891234847161E-08 9.34314820826625E-15 8.11257671740344E-11 180              
                1.90851057305684E-07 -180             1.26512076898428E-07 -180             5.17660494760213E-07 180              5.74151825950002E-08 -180             
                6.2494453727824E-09 180              4.56763812075982E-07 8.38677806033519E-21 
                1.35879629920082E-08 180              2.52883549596932E-08 180              0.000580038480257894 -180             6.50636331942892E-09 -9.89879127024113E-15 
                3.96315486734811E-09 180              2.80358015864587E-09 4.86411420472342E-20 3.82247376216023E-10 1.09423825310462E-14 6.80726626416721E-13 180              
                9.71938441201999E-10 180              2.61424946509604E-09 -180             3.01348430194226E-09 -180             3.46324424047255E-09 -7.15649575339474E-15 
                1.00495985059902E-10 -180             6.12557891534506E-09 -4.21286419722264E-20 
                6.79601606383315E-07 180              4.01523547730354E-08 180              6.50636331942891E-09 -1.19103730010759E-14 0.00146915296219874 -179.999999999992 
                2.60688882006346E-07 180              2.41489168913426E-06 180              1.27143068269659E-07 -2.61223541265804E-15 1.03139919136063E-10 -180             
                6.3805906715142E-08 180              3.18604849060809E-08 3.06298838057306E-14 2.78664232140907E-07 180              3.00399466045706E-06 -8.91841548423871E-15 
                8.64523176444451E-08 -1.16101025870196E-14 2.49835351798147E-06 -1.14358501854491E-14 
                3.752287618847E-08 -180             1.07878875328355E-07 -180             3.96315486734812E-09 180              2.60688882006345E-07 180              
                0.00402694849657137 -180             4.3789102367655E-08 -1.90255771586923E-19 1.23950045459217E-09 -180             1.01176965986884E-12 180              
                1.97538979830457E-09 -180             5.59431548087386E-09 3.82916781649236E-14 2.59423471384155E-08 -5.22239710863919E-15 2.66572351460999E-08 -9.95053037240518E-16 
                1.11780481998288E-09 2.63966602380175E-19 4.78911115464476E-08 180              
                2.02454228873782E-06 -1.04066008044631E-20 5.69008684446653E-07 -4.04543854198531E-21 2.80358015864588E-09 5.93681526647357E-20 2.41489168913426E-06 180              
                4.3789102367655E-08 -1.68634758245425E-19 0.00033648146538956 -180             5.14383657857266E-08 4.70174762814567E-15 5.029077945109E-10 180              
                8.84944020796854E-08 -2.57117456217799E-20 2.78411527862575E-08 -180             3.51199556887832E-07 180              2.34130801738988E-07 -1.29690558106377E-14 
                3.41441072695097E-09 180              5.76066933833237E-07 1.00500946419224E-19 
                7.155579359356E-08 2.43094927974793E-15 3.78891234847162E-08 2.10560815479751E-15 3.82247376216023E-10 1.93508248512089E-15 1.27143068269659E-07 -1.01618093002278E-14 
                1.23950045459218E-09 -180             5.14383657857266E-08 1.97144083881363E-15 0.00263026760640217 -180             1.51140085702562E-11 180              
                9.89901800444805E-09 1.75994884995875E-15 1.86368633397998E-09 -180             2.86814378748159E-07 -180             2.45969347166585E-07 8.66776822841768E-15 
                6.99460848632173E-10 2.09376094608534E-15 9.38839082142949E-08 -180             
                2.10385236097176E-10 -180             8.11257671740343E-11 -180             6.80726626416721E-13 -180             1.03139919136063E-10 180              
                1.01176965986884E-12 -180             5.029077945109E-10 -180             1.51140085702562E-11 -180             0.00474413950860231 180              
                9.48439599867045E-12 -180             2.71909854710741E-12 4.67747009190565E-14 5.45142438314408E-11 -1.84131629314608E-15 1.15794367683128E-10 -180             
                6.15963161791222E-13 -180             4.46537250646557E-11 5.38367474765195E-15 
                1.85401265656099E-07 -180             1.90851057305684E-07 180              9.71938441201996E-10 180              6.38059067151419E-08 180              
                1.97538979830456E-09 -180             8.84944020796853E-08 -1.14128883091454E-20 9.89901800444801E-09 3.64931522912576E-15 9.48439599867044E-12 180              
                0.00476225508531969 -180             2.65409990416301E-09 -180             2.7235654123546E-07 -180             7.3337519423918E-08 -180             
                5.9751384346202E-10 180              5.84255047519495E-08 3.94876882891232E-20 
                4.44744444996928E-08 -180             1.26512076898428E-07 180              2.61424946509603E-09 180              3.18604849060808E-08 4.39930160059714E-15 
                5.59431548087387E-09 1.13580480256544E-15 2.78411527862575E-08 -180             1.86368633397998E-09 180              2.7190985471074E-12 -2.58203453035167E-14 
                2.65409990416302E-09 -180             0.00735620100404388 179.999999999999 5.25598475225087E-08 180              2.12542330640697E-07 -180             
                1.11417474625192E-09 -7.95423678255865E-15 5.47829851060413E-08 -180             
                1.61401891614704E-06 180              5.17660494760211E-07 180              3.01348430194226E-09 180              2.78664232140908E-07 180              
                2.59423471384155E-08 -6.38585747792167E-15 3.51199556887832E-07 180              2.86814378748159E-07 180              5.45142438314409E-11 -1.2304416870825E-14 
                2.7235654123546E-07 180              5.25598475225089E-08 -180             0.00103962578178973 -179.999999999997 1.96719064471458E-06 -5.18433424278843E-15 
                2.64472819123722E-09 -5.88524231965084E-15 5.77497544409574E-07 180              
                5.17739075542767E-07 180              5.74151825950004E-08 -180             3.46324424047255E-09 -1.04500928481137E-14 3.00399466045705E-06 -2.4373322871126E-14 
                2.66572351460999E-08 -1.11453559341598E-15 2.34130801738989E-07 -7.32219148394287E-15 2.45969347166585E-07 1.78086964474982E-14 1.15794367683127E-10 180              
                7.3337519423918E-08 -180             2.12542330640697E-07 -180             1.96719064471458E-06 -3.43749060721849E-15 0.00969220066192977 -180             
                5.83680896922089E-08 -3.05960961249224E-15 2.05856974053334E-06 -1.00834250514835E-14 
                6.95635089451991E-09 180              6.24944537278241E-09 -180             1.00495985059902E-10 -180             8.64523176444451E-08 -1.14307711072681E-14 
                1.11780481998288E-09 2.16466388450157E-19 3.41441072695096E-09 180              6.99460848632172E-10 2.56825561396177E-14 6.15963161791221E-13 180              
                5.9751384346202E-10 180              1.11417474625193E-09 3.9645398319316E-14 2.64472819123722E-09 -7.66977106380513E-15 5.83680896922089E-08 -2.45958713991521E-15 
                0.00192974162388704 -180             3.78000163670193E-08 -9.43322493415263E-20 
                6.24633720344506E-07 1.38593205561641E-20 4.56763812075982E-07 -6.58705530164954E-21 6.12557891534507E-09 -2.93627162382705E-20 2.49835351798147E-06 -5.07252928945107E-15 
                4.78911115464475E-08 180              5.76066933833238E-07 3.68370768588331E-20 9.3883908214295E-08 -180             4.46537250646557E-11 -1.50848412679897E-16 
                5.84255047519495E-08 8.93321943274963E-21 5.47829851060413E-08 -180             5.77497544409573E-07 180              2.05856974053333E-06 -5.37377081910906E-15 
                3.78000163670194E-08 -4.59986263128304E-20 0.00240265467791323 -180             
! Gamma         !               59.9338536558492 0                76.2417860318037 0                59.9338829653998 0                103.00717986101  0                
!               76.2411137424771 0                76.2413237878676 0                76.2410000548162 0                103.007326710585 0                
!               103.007662713645 0                76.2412963331395 0                76.2412486999188 0                103.007328200992 0                
!               59.9337748344755 0                76.2416480405989 0                
! Port Impedance0                29.2358795501985 0                57.3477158797528 0                58.4256753563281 0                28.3560737639545 
!               0                57.481915393341  0                28.740738611609  0                57.4187041292578 0                56.7024628044158 
!               0                56.6800952748525 0                57.465198127053  0                28.7388983851008 0                28.3436728740332 
!               0                58.4869471141811 0                57.3819060393444 

0.95                           0.000759631207368328 -179.999999999987 3.18666582672474E-06 180              1.51561394883882E-08 180              7.53577694118714E-07 180              
                4.18894055546015E-08 180              2.1917687899252E-06 7.13929865558562E-15 7.79980144830913E-08 -1.72031555331727E-14 2.27554090056002E-10 180              
                1.73459721293745E-07 180              4.96120890277716E-08 180              1.75092541236774E-06 180              5.74563891199699E-07 180              
                8.1136301173424E-09 180              6.91355579865502E-07 -1.36005313812694E-14 
                3.18666582672474E-06 180              0.00104480282509334 -180             2.69930011895285E-08 -180             4.3330120914642E-08 -180             
                1.16566871391467E-07 -180             6.17272790526368E-07 1.6471872401591E-14 4.15468095020092E-08 -2.65679533241644E-15 8.82830626509959E-11 -180             
                1.98366179609084E-07 -180             1.36318126356137E-07 -180             5.63473643165586E-07 -180             6.19586976048925E-08 180              
                7.12077512318868E-09 180              4.99555070923629E-07 1.75875518229258E-19 
                1.51561394883882E-08 180              2.69930011895285E-08 -180             0.000579846631056924 -180             7.33877714859449E-09 -6.27197743963383E-20 
                4.4181796932415E-09 -180             3.22895264117971E-09 2.08212412684885E-14 4.43447419622318E-10 -4.39314675788786E-15 7.85645137207E-13 -180             
                1.08147879931871E-09 -180             2.92806229027581E-09 -180             3.46399487639299E-09 -180             3.96359110536408E-09 6.02858001904905E-15 
                1.18398790756915E-10 180              6.98445784809924E-09 4.38970128306889E-20 
                7.53577694118714E-07 180              4.33301209146418E-08 -180             7.3387771485945E-09 -5.60448341516247E-20 0.00145532663173398 180              
                2.77253900870614E-07 -180             2.55509809334726E-06 -180             1.38133333612618E-07 -1.91770925439725E-15 1.12955285292304E-10 180              
                6.96171802703864E-08 -180             3.52218956236166E-08 -6.42700100008516E-20 3.06231048963788E-07 -180             3.18882156306501E-06 1.10644115423733E-14 
                9.44709979257717E-08 -1.56998622862793E-14 2.60013629853554E-06 9.12658160728342E-21 
                4.18894055546015E-08 180              1.16566871391467E-07 -180             4.41817969324151E-09 -180             2.77253900870613E-07 -180             
                0.00400131424909922 180              4.67135052593687E-08 2.19073347355271E-14 1.39057830160063E-09 180              1.06493007806731E-12 -180             
                2.16664240735265E-09 -180             6.18274927958508E-09 -1.76273319792153E-20 2.90038099733692E-08 1.19922564070393E-15 2.95161082764652E-08 1.06115741998277E-14 
                1.27198020775908E-09 -6.40464980024273E-15 5.27283972543274E-08 180              
                2.1917687899252E-06 4.0987756174219E-15 6.17272790526368E-07 2.16584578703573E-14 3.2289526411797E-09 2.22664460036329E-14 2.55509809334726E-06 -180             
                4.67135052593688E-08 2.20621982784339E-14 0.00033383597615666 179.999999999939 5.59781873775336E-08 1.0681003298452E-14 5.39116368087159E-10 -180             
                9.48056883727284E-08 2.22244429632539E-14 3.11829188065902E-08 -180             3.80825671681264E-07 -180             2.56613620919234E-07 2.9008088889713E-14 
                3.91052671424608E-09 -180             6.24647872215141E-07 2.2033461173363E-14 
                7.79980144830912E-08 -2.34817050802026E-14 4.15468095020092E-08 -5.31450655755235E-17 4.43447419622318E-10 -3.36034301774432E-16 1.38133333612618E-07 -7.93182376194384E-16 
                1.39057830160063E-09 180              5.59781873775336E-08 1.19986968883139E-14 0.00261211013679286 -180             1.65053272399131E-11 180              
                1.04827307599503E-08 1.81460313582705E-16 2.06491769423959E-09 180              3.05814425691349E-07 -180             2.63594365255754E-07 1.04087728534961E-14 
                7.88881438425882E-10 -1.68364107611104E-14 9.84741837400309E-08 180              
                2.27554090056001E-10 180              8.82830626509959E-11 -180             7.85645137207003E-13 -180             1.12955285292304E-10 180              
                1.06493007806731E-12 -180             5.3911636808716E-10 -180             1.65053272399132E-11 -180             0.0047219775827656 180              
                9.96595077184333E-12 -180             3.0524195274548E-12 -3.29719090170236E-20 5.91863426277917E-11 1.14036498938296E-14 1.27184223473813E-10 -180             
                6.99084364526829E-13 180              4.69604232704667E-11 -2.75175148275982E-20 
                1.73459721293745E-07 180              1.98366179609084E-07 -180             1.08147879931871E-09 -180             6.96171802703863E-08 -180             
                2.16664240735265E-09 -180             9.48056883727287E-08 1.27368882340184E-14 1.04827307599504E-08 -1.23581930121632E-15 9.9659507718433E-12 -180             
                0.00474919701494614 180              2.91452253080977E-09 180              2.87358560491214E-07 -180             7.94833191143466E-08 -180             
                6.84539270731596E-10 180              6.3187459155757E-08 5.53707254940546E-20 
                4.96120890277717E-08 180              1.36318126356136E-07 -180             2.92806229027581E-09 180              3.52218956236167E-08 5.34537903717884E-19 
                6.18274927958509E-09 1.06565110093807E-20 3.11829188065902E-08 -180             2.06491769423958E-09 180              3.0524195274548E-12 -1.04091901891372E-19 
                2.91452253080978E-09 -180             0.00730091195248539 -180             5.61788964740992E-08 -180             2.26215710039688E-07 180              
                1.26816834778424E-09 -3.12205733979846E-14 6.01186139199915E-08 180              
                1.75092541236774E-06 180              5.63473643165586E-07 -180             3.463994876393E-09 -180             3.06231048963788E-07 -180             
                2.90038099733693E-08 8.30940102035155E-15 3.80825671681264E-07 -180             3.05814425691348E-07 -180             5.91863426277918E-11 8.44624466918961E-15 
                2.87358560491214E-07 -180             5.61788964740989E-08 -180             0.0010340311812056 179.999999999994 2.08419394109849E-06 8.18006690200657E-15 
                3.04405218520535E-09 -5.712756515815E-15 6.25756771115561E-07 -180             
                5.74563891199699E-07 180              6.19586976048926E-08 -180             3.9635911053641E-09 9.44288450854513E-15 3.18882156306502E-06 6.85730366581196E-15 
                2.95161082764654E-08 9.6179766282018E-15 2.56613620919233E-07 1.5894387095536E-14 2.63594365255754E-07 5.5157384207268E-15 1.27184223473813E-10 -180             
                7.94833191143466E-08 -180             2.26215710039687E-07 -180             2.0841939410985E-06 1.57484010817056E-14 0.0096473625957727 179.999999999999 
                6.39080670747375E-08 -2.78247982022228E-14 2.14286784156915E-06 7.50874945315111E-15 
                8.1136301173424E-09 180              7.1207751231887E-09 180              1.18398790756915E-10 180              9.44709979257718E-08 -1.47613357500003E-14 
                1.27198020775908E-09 -1.50759774983189E-14 3.91052671424608E-09 -180             7.88881438425883E-10 -1.35117456779393E-14 6.99084364526829E-13 180              
                6.84539270731597E-10 180              1.26816834778424E-09 -1.07839467541948E-14 3.04405218520535E-09 -2.63431576905534E-16 6.39080670747375E-08 3.77418799257151E-15 
                0.00191027285902601 -179.999999999995 4.04296958489667E-08 -1.36393666505664E-14 
                6.91355579865501E-07 -2.31286134359931E-14 4.99555070923631E-07 1.3515575636674E-19 6.98445784809926E-09 5.40560028338374E-20 2.60013629853554E-06 1.49097982655742E-21 
                5.27283972543274E-08 180              6.24647872215141E-07 1.70054497978695E-14 9.8474183740031E-08 -180             4.69604232704666E-11 -8.32835054799382E-20 
                6.31874591557571E-08 8.778874398821E-20 6.01186139199913E-08 -180             6.2575677111556E-07 -180             2.14286784156915E-06 1.02280486115014E-14 
                4.04296958489667E-08 -1.08589274709023E-14 0.00239726574505961 180              
! Gamma         !               59.5939223012498 0                75.9748556992771 0                59.5939517779855 0                102.809765412266 0                
!               75.9741810479056 0                75.9743918312816 0                75.9740669608066 0                102.80991254382  0                
!               102.810249192065 0                75.9743642800927 0                75.9743164795152 0                102.809914037089 0                
!               59.5938430302682 0                75.9747172232526 0                
! Port Impedance0                31.0361233995244 0                60.7463387626177 0                62.0233204198622 0                29.9888843795872 
!               0                60.8885312988073 0                30.4440352015372 0                60.8215535985957 0                59.9675257068808 
!               0                59.9438698675537 0                60.8708232993785 0                30.4420818288006 0                29.9757674839474 
!               0                62.0883671366446 0                60.7825919464694 

1                              0.000754890337149816 -180             3.32371462545055E-06 -180             1.70156061652615E-08 -180             8.41431743960829E-07 180              
                4.71342512700571E-08 180              2.3854424065343E-06 -4.56438603321869E-15 8.54803130931172E-08 -7.87996293169459E-20 2.4726732335535E-10 180              
                1.58342486138895E-07 -180             5.57708503620418E-08 -180             1.90985458994363E-06 180              6.42177481319494E-07 180              
                9.56030590101899E-09 -180             7.70451468618736E-07 -2.77727635747257E-15 
                3.32371462545055E-06 -180             0.00103808573231834 -180             2.88840076197895E-08 -180             4.70357496653987E-08 180              
                1.26631817852024E-07 -180             6.73360753818037E-07 -5.76825247092567E-15 4.58360355895679E-08 -6.84949276543644E-20 9.6587877741427E-11 180              
                2.06511176082253E-07 180              1.47639656864338E-07 -180             6.16795038453045E-07 180              6.72330678743676E-08 180              
                8.18365864446645E-09 -180             5.49706407461229E-07 -1.3857128218717E-15 
                1.70156061652615E-08 -180             2.88840076197895E-08 180              0.000579765651378072 180              8.34574149878938E-09 9.7812416899211E-21 
                4.95970298004305E-09 -180             3.75378605201548E-09 -1.14578338931001E-15 5.1948969466928E-10 -3.69661535167745E-20 9.1511370252177E-13 180              
                1.21116566847609E-09 180              3.30368331638892E-09 -180             4.01925991853463E-09 180              4.57574043126859E-09 5.39881517625142E-20 
                1.40949149537493E-10 -180             8.03287626042722E-09 -1.12455628549885E-17 
                8.41431743960829E-07 180              4.70357496653982E-08 180              8.34574149878939E-09 1.64220299416965E-20 0.00144057585985158 -180             
                2.96075623354139E-07 180              2.71388262726387E-06 180              1.50907643481095E-07 9.6081559753139E-22 1.24358505011584E-10 -180             
                7.64050525796353E-08 180              3.92077616963071E-08 3.37297042197967E-14 3.38699219287554E-07 180              3.39823291321627E-06 9.58545285852018E-21 
                1.03817452276969E-07 6.69822425730626E-15 2.71235742824335E-06 -1.0624812222395E-15 
                4.71342512700572E-08 -180             1.26631817852025E-07 -180             4.95970298004305E-09 -180             2.96075623354139E-07 -180             
                0.00397432356959149 180              5.00052518841452E-08 -3.02865834391831E-15 1.57321363664954E-09 180              1.12035519662575E-12 180              
                2.394707630269E-09 180              6.87777915735509E-09 4.24986277661787E-14 3.26804943921245E-08 -1.04822343793785E-14 3.29083605018169E-08 -3.36485406393553E-20 
                1.45961692121814E-09 7.33715462177841E-15 5.84340404142938E-08 180              
                2.3854424065343E-06 -5.76779774795791E-15 6.73360753818036E-07 -5.62262203686077E-15 3.75378605201547E-09 -4.95717088421168E-15 2.71388262726386E-06 180              
                5.00052518841451E-08 -5.59627390394931E-15 0.00033100378154427 -179.999999999978 6.12649510901724E-08 -6.06340142852332E-15 5.80211158444167E-10 180              
                1.02052226450969E-07 -1.50319829803401E-14 3.5195913410969E-08 -180             4.15159815482831E-07 180              2.83031828127087E-07 -5.94472671009912E-15 
                4.51987631023028E-09 -180             6.81088097222981E-07 -1.12111191853936E-14 
                8.54803130931172E-08 -7.60522738680835E-20 4.58360355895679E-08 -4.76709588180879E-20 5.1948969466928E-10 -2.52429437342854E-20 1.50907643481095E-07 -4.20140291176699E-21 
                1.57321363664954E-09 180              6.12649510901725E-08 -5.57099986080804E-15 0.00259305944138621 -180             1.81295348990272E-11 180              
                1.11379001335766E-08 -9.11047890023174E-15 2.30472487753366E-09 -180             3.2738202185165E-07 180              2.83752520790297E-07 2.47431986762384E-20 
                8.96343707593316E-10 1.4632792705117E-14 1.03484343146707E-07 180              
                2.4726732335535E-10 180              9.65878777414273E-11 180              9.15113702521773E-13 180              1.24358505011584E-10 -180             
                1.12035519662575E-12 180              5.80211158444169E-10 180              1.81295348990273E-11 180              0.00469864138738807 -180             
                1.04970945972517E-11 180              3.45302779310069E-12 4.70909577845143E-14 6.46043299575162E-11 -1.61702341592852E-14 1.40534971430841E-10 180              
                7.99454414700753E-13 -180             4.94285041458619E-11 6.36253108074077E-15 
                1.58342486138896E-07 180              2.06511176082253E-07 180              1.21116566847609E-09 180              7.64050525796352E-08 180              
                2.394707630269E-09 180              1.0205222645097E-07 -2.2056710063568E-14 1.11379001335766E-08 -1.08460464200966E-14 1.04970945972517E-11 180              
                0.00473547915914208 -179.999999999999 3.22198778133987E-09 -180             3.04262113518488E-07 180              8.66288097109994E-08 180              
                7.91343002308139E-10 -180             6.87020021526561E-08 -1.36129557471849E-14 
                5.57708503620417E-08 -180             1.47639656864338E-07 -180             3.3036833163889E-09 -180             3.92077616963071E-08 -5.85983410603038E-15 
                6.87777915735509E-09 -1.83109716813524E-15 3.51959134109688E-08 180              2.30472487753365E-09 180              3.45302779310066E-12 -1.90051149151145E-14 
                3.22198778133988E-09 180              0.0072427281584132 -179.999999999999 6.0273296104032E-08 180              2.41778566614543E-07 -180             
                1.45569035905989E-09 5.4501003738015E-14 6.63943837764339E-08 -180             
                1.90985458994363E-06 180              6.16795038453044E-07 180              4.01925991853463E-09 180              3.38699219287554E-07 180              
                3.26804943921245E-08 -1.38782874591891E-15 4.15159815482831E-07 180              3.2738202185165E-07 180              6.46043299575161E-11 -1.14846265486129E-15 
                3.04262113518488E-07 180              6.0273296104032E-08 -180             0.00102808017333134 -179.999999999994 2.21681826723349E-06 -1.56204574031149E-15 
                3.53673227369985E-09 1.17346289297778E-14 6.817824563584E-07 -180             
                6.42177481319492E-07 180              6.72330678743678E-08 180              4.57574043126859E-09 4.42605260609684E-20 3.39823291321627E-06 9.47580387136731E-21 
                3.2908360501817E-08 -4.51676610933365E-20 2.83031828127087E-07 -5.95631140693692E-15 2.83752520790297E-07 3.27762766040031E-20 1.40534971430841E-10 -180             
                8.66288097109993E-08 180              2.41778566614544E-07 -180             2.21681826723349E-06 -1.83015780317405E-14 0.00959997902973564 -180             
                7.03907858087238E-08 1.22318680511707E-16 2.23587677657735E-06 -1.80900940689887E-15 
                9.56030590101899E-09 -180             8.18365864446645E-09 -180             1.40949149537493E-10 -180             1.03817452276969E-07 1.62022227982808E-14 
                1.45961692121814E-09 1.50090816269144E-14 4.51987631023028E-09 -180             8.96343707593314E-10 1.40098095030093E-14 7.99454414700752E-13 -180             
                7.91343002308137E-10 180              1.45569035905989E-09 4.93458039545943E-14 3.53673227369984E-09 8.81915365534653E-15 7.03907858087241E-08 1.66367038844984E-14 
                0.00188991944599315 179.999999999993 4.33778979095932E-08 5.52398928734007E-15 
                7.70451468618738E-07 3.17266267749979E-15 5.49706407461231E-07 3.13520358054964E-15 8.03287626042724E-09 2.80916741789515E-15 2.71235742824335E-06 2.55958576869822E-15 
                5.84340404142937E-08 -180             6.81088097222981E-07 1.95984718368022E-15 1.03484343146707E-07 -180             4.94285041458619E-11 2.97187291548106E-15 
                6.8702002152656E-08 -6.51323999700746E-15 6.63943837764344E-08 -180             6.817824563584E-07 180              2.23587677657735E-06 3.68022251065874E-15 
                4.33778979095932E-08 1.7328922670031E-14 0.00239163738297221 -179.999999999999 
! Gamma         !               59.2335044824803 0                75.6924776748296 0                59.233534138573  0                102.601268716102 0                
!               75.6918005065842 0                75.6920120763195 0                75.6916859938641 0                102.601416146642 0                
!               102.601753478989 0                75.6919844223471 0                75.6919364434426 0                102.601417642946 0                
!               59.2334247291583 0                75.6923386822062 0                
! Port Impedance0                32.8683863171504 0                64.1820159472121 0                65.6849521482439 0                31.6313937558163 
!               0                64.3322956557582 0                32.1659061778748 0                64.2615068879712 0                63.2519827024257 
!               0                63.2270308443036 0                64.3135861196524 0                32.163837707652  0                31.6175562739651 
!               0                65.7538413438983 0                64.2203611076399 
