! Touchstone file from project test_multiport
! Exported from HFSS 2019.2.0
!Data is not renormalized
# GHZ S MA
! Modal data exported
! Port[1] = 1:1
! Port[2] = 2:1
! Port[3] = 3:1
! Port[4] = 4:1
! Port[5] = 5:1
! Port[6] = 6:1
! Port[7] = 7:1
! Port[8] = 8:1
! Port[9] = 9:1
! Port[10] = 10:1
! Port[11] = 11:1
! Port[12] = 12:1
! Port[13] = 13:1
0.9                            0.00144730222994127 -180             3.05015416194737E-06 180              1.34048679408539E-08 180              6.85546018871717E-07 -180             
                3.6387315973041E-08 -180             2.00193255730953E-06 9.35432639792634E-21 7.2890237830117E-08 1.71954123234554E-20 1.99954292660647E-10 -180             
                1.73226551159474E-07 180              4.06099372343587E-08 -180             1.6184502551118E-06 -180             5.07626799713652E-07 -180             
                7.14253695921322E-09 180              
                3.05015416194737E-06 180              0.000963305552636906 179.999999999999 2.51856515652401E-08 180              3.86077487540848E-08 180              
                1.04019016541512E-07 180              5.69957188444828E-07 -2.64026675682758E-15 3.91280339260354E-08 -2.38758539047188E-15 8.11193686751109E-11 -180             
                1.84200819604196E-07 180              1.23434576234579E-07 -180             5.25963531785217E-07 180              5.82502072913357E-08 180              
                6.47104726493425E-09 180              
                1.34048679408539E-08 180              2.51856515652401E-08 180              0.000709083594171322 -179.999999999992 6.77416362179905E-09 -7.78746496400741E-15 
                3.7572314786718E-09 180              2.78386946288206E-09 -7.23380496559355E-15 3.91577778699847E-10 -7.48725767630815E-15 7.17187187367538E-13 -180             
                9.28438867319222E-10 -180             2.47343241262844E-09 -180             3.03221288375603E-09 180              3.39794858761288E-09 -6.94062269690836E-15 
                1.03202321945578E-10 180              
                6.85546018871717E-07 180              3.86077487540848E-08 -180             6.77416362179904E-09 -2.85173840466028E-16 0.00210844529433296 180              
                2.55830881204948E-07 180              2.44401201281013E-06 -180             1.36507704104031E-07 -2.95616280389768E-21 1.77687275951127E-10 -180             
                6.09003005838199E-08 -180             2.9230172589352E-08 3.26193891316001E-14 2.94148304347655E-07 180              3.04974008957447E-06 1.34273478364738E-22 
                9.03270605993441E-08 -1.02568064486952E-14 
                3.63873159730409E-08 -180             1.04019016541512E-07 -180             3.75723147867179E-09 180              2.55830881204949E-07 180              
                0.00322106087935359 -180             4.18449582973409E-08 8.69060358463711E-22 1.14568393581145E-09 180              2.34007856962233E-14 9.31447962998949E-13 
                1.95521544257367E-09 -180             4.95991862183733E-09 2.40649337666513E-14 2.48573555488449E-08 -1.80039325109201E-21 2.54574381315745E-08 -1.33365645085091E-21 
                1.08325702037088E-09 -2.15055824018935E-14 
                2.00193255730954E-06 6.44461452169712E-21 5.69957188444826E-07 -3.75335439522065E-15 2.78386946288206E-09 -5.5627759216339E-15 2.44401201281012E-06 180              
                4.18449582973409E-08 1.02204055875325E-20 0.000436561208696285 -180             5.13011807140982E-08 -2.78915436255831E-21 6.01773512888572E-10 -180             
                8.6851234475242E-08 1.39926206702647E-14 2.61271076436499E-08 -180             3.55148783792267E-07 180              2.29848423013567E-07 9.68410757167151E-22 
                3.53518882717163E-09 180              
                7.28902378301172E-08 2.9585629735232E-20 3.91280339260355E-08 -1.45548523904647E-14 3.91577778699848E-10 -7.38134244293189E-15 1.36507704104031E-07 6.62349318339861E-23 
                1.14568393581145E-09 180              5.13011807140983E-08 -7.52266076309522E-21 0.00328855195031086 -180             1.41715161273281E-11 -180             
                9.79090352659654E-09 1.80964439463663E-14 1.97582748429735E-09 -180             3.07488689242909E-07 180              2.38609190986212E-07 1.34850114458894E-22 
                7.45794366781704E-10 -2.25382268857421E-14 
                1.99954292660647E-10 -180             8.1119368675111E-11 180              7.17187187367539E-13 180              1.77687275951127E-10 -180             
                2.3400785696215E-14 3.23090587387236E-14 6.01773512888571E-10 -180             1.41715161273281E-11 -180             0.0054592566442645 180              
                7.32003881580209E-12 -180             2.00080250219742E-12 4.67253465425122E-14 4.63030356613785E-11 6.29483001383198E-15 1.1742405773764E-10 -180             
                7.95111560984931E-13 -180             
                1.73226551159475E-07 -180             1.84200819604196E-07 180              9.28438867319224E-10 -180             6.09003005838199E-08 -180             
                1.95521544257366E-09 -180             8.68512344752421E-08 7.42918616238281E-15 9.79090352659652E-09 7.34597314146953E-15 7.32003881580203E-12 -180             
                0.00807836227067049 180              2.13845503523789E-09 -180             2.60548411610431E-07 -180             7.09621282307266E-08 -180             
                5.95996797250313E-10 180              
                4.06099372343586E-08 -180             1.23434576234579E-07 -180             2.47343241262844E-09 -180             2.92301725893521E-08 1.11981987838342E-14 
                4.95991862183734E-09 9.91781745994022E-15 2.61271076436498E-08 -180             1.97582748429735E-09 -180             2.00080250219741E-12 1.38642024183002E-14 
                2.13845503523789E-09 -180             0.00462777742988485 179.999999999999 4.96554359292748E-08 -180             1.95516902158269E-07 -180             
                1.06840199016129E-09 -1.80437158688702E-15 
                1.6184502551118E-06 -180             5.25963531785217E-07 180              3.03221288375603E-09 180              2.94148304347656E-07 180              
                2.48573555488449E-08 -1.08377774964436E-20 3.55148783792266E-07 180              3.07488689242909E-07 180              4.63030356613785E-11 3.48613531166998E-15 
                2.60548411610432E-07 -180             4.96554359292748E-08 -180             0.00057874628197363 -180             1.9572001865499E-06 2.17999559006632E-22 
                2.79261897024094E-09 -2.38478660717739E-14 
                5.07626799713653E-07 180              5.82502072913361E-08 -180             3.39794858761289E-09 -2.97552093446559E-15 3.04974008957447E-06 3.0512683949174E-23 
                2.54574381315745E-08 3.06450963043985E-20 2.29848423013567E-07 -1.87164110524195E-20 2.38609190986213E-07 -1.25240176855712E-21 1.1742405773764E-10 -180             
                7.09621282307268E-08 180              1.95516902158269E-07 -180             1.95720018654989E-06 2.1926822527968E-21 0.00999434028252666 180              
                5.93964177730641E-08 -2.28101855917456E-14 
                7.1425369592132E-09 180              6.47104726493423E-09 180              1.03202321945578E-10 180              9.03270605993441E-08 -6.19457628784221E-15 
                1.08325702037088E-09 -8.24827429568865E-15 3.53518882717164E-09 180              7.45794366781701E-10 -7.16497200627937E-15 7.95111560984929E-13 -180             
                5.95996797250311E-10 180              1.06840199016129E-09 8.4532777733063E-15 2.79261897024093E-09 -7.97791599406879E-15 5.9396417773064E-08 -7.66525495049042E-15 
                0.0019248833560519 -179.999999999997 
! Gamma         !               59.9338536558492 0                76.2418297805489 0                59.9339429259331 0                103.007239452931 0                
!               76.2412270653025 0                76.2413237878676 0                76.2410539837951 0                103.007349459533 0                
!               103.008595801612 0                76.2413025410243 0                76.2412820587261 0                103.007356940945 0                
!               59.9337578047954 0                
! Port Impedance0                29.2358795501985 0                57.3568017781391 0                58.4243895148989 0                28.3512647142387 
!               0                57.4835523867289 0                28.740738611609  0                57.4316550421091 0                56.6850872670369 
!               0                56.6178489697217 0                57.4649899458736 0                28.7415305916104 0                28.3431835608279 
!               0                58.4907086470176 

0.95                           0.00144120961659044 -179.999999999998 3.17699657847298E-06 180              1.49561622884657E-08 180              7.60624967779015E-07 180              
                4.06194062452704E-08 180              2.16788553258224E-06 2.04534934187263E-14 7.94350521285515E-08 6.02078759564642E-15 2.15837929032524E-10 180              
                1.61507248777885E-07 180              4.53763542864361E-08 180              1.75585836240143E-06 180              5.63585930927341E-07 -180             
                8.33068259690601E-09 180              
                3.17699657847298E-06 180              0.000957781138042346 -180             2.68838978007247E-08 -180             4.15477657974965E-08 -180             
                1.12427406137053E-07 180              6.18268535883462E-07 3.02326836686143E-14 4.28846154172461E-08 2.12126427813207E-14 8.81099159684242E-11 -180             
                1.91559866727829E-07 180              1.32950199092344E-07 -180             5.72379191511136E-07 180              6.2922280048262E-08 -180             
                7.3717201274581E-09 180              
                1.49561622884657E-08 -180             2.68838978007247E-08 -180             0.000707004318990956 179.999999999989 7.64106419719604E-09 7.31528572799619E-16 
                4.19036507192812E-09 180              3.20617419662996E-09 4.1343415507769E-14 4.5411985642447E-10 1.81790155355356E-14 8.25502251652171E-13 -180             
                1.03373083060827E-09 180              2.77296597008245E-09 -180             3.48508609270629E-09 180              3.88713671197105E-09 1.21517500427423E-14 
                1.21569329470097E-10 180              
                7.60624967779016E-07 180              4.15477657974964E-08 180              7.64106419719605E-09 1.16348382678369E-14 0.00208810666049764 179.999999999997 
                2.72421725313632E-07 180              2.58704013207488E-06 -180             1.48062107029852E-07 2.86245464514155E-14 1.92180453294139E-10 -180             
                6.65538973354275E-08 180              3.23901271667537E-08 1.49470340867946E-14 3.22984187267014E-07 -180             3.23678702330728E-06 4.37613490263961E-14 
                9.86723051946511E-08 -3.70186050832583E-15 
                4.06194062452705E-08 180              1.12427406137053E-07 180              4.19036507192812E-09 180              2.72421725313631E-07 180              
                0.00320592934525033 -179.999999999996 4.46668812092683E-08 3.72994390153519E-15 1.2860209625263E-09 -180             5.08176414801468E-14 -1.98258042920428E-14 
                2.14490030935457E-09 180              5.49275512887483E-09 -1.79634698927844E-14 2.7805883742944E-08 -3.96614846494797E-14 2.81960367665475E-08 2.02345330271312E-14 
                1.23364239394972E-09 -2.22518278599599E-14 
                2.16788553258224E-06 1.98657961276676E-14 6.18268535883461E-07 2.33295902305057E-14 3.20617419662997E-09 2.32224461340816E-14 2.58704013207487E-06 -180             
                4.46668812092683E-08 -4.6537112492856E-15 0.000433485916433551 179.999999999951 5.58744503949151E-08 4.10267317015352E-14 6.40298612206178E-10 -180             
                9.30462144490467E-08 6.48236627283145E-15 2.92910101706208E-08 -180             3.85051717372348E-07 -180             2.51604185601949E-07 5.95960525042352E-14 
                4.04838188462851E-09 -180             
                7.94350521285514E-08 3.89451919477975E-15 4.28846154172461E-08 6.32073319637129E-15 4.54119856424471E-10 6.54214435405673E-15 1.48062107029851E-07 8.94240492414551E-15 
                1.2860209625263E-09 180              5.58744503949153E-08 3.29941342123848E-14 0.00327168476883433 179.999999999997 1.55398235382992E-11 -180             
                1.03730550335874E-08 -6.61993636269633E-15 2.18783626272309E-09 -180             3.27608215371918E-07 180              2.55903855620915E-07 1.24475685431533E-14 
                8.41107226654274E-10 3.41842257536284E-16 
                2.15837929032524E-10 180              8.81099159684241E-11 -180             8.25502251652172E-13 -180             1.92180453294138E-10 180              
                5.08176414801529E-14 -5.22777671604555E-13 6.40298612206179E-10 -180             1.55398235382992E-11 -180             0.00544437869566805 180              
                7.66642336587052E-12 180              2.25716987234496E-12 1.07235883699898E-15 5.05829694329346E-11 -2.00505309570512E-14 1.28765350257461E-10 -180             
                9.00121734039164E-13 180              
                1.61507248777885E-07 180              1.91559866727829E-07 180              1.03373083060827E-09 180              6.65538973354273E-08 180              
                2.14490030935456E-09 180              9.30462144490466E-08 2.50336804393366E-14 1.03730550335874E-08 2.10999517302739E-14 7.66642336587048E-12 180              
                0.00805808458299029 -180             2.36097579978352E-09 -180             2.75210823950802E-07 180              7.69513237923619E-08 -180             
                6.8314170635781E-10 180              
                4.53763542864361E-08 180              1.32950199092344E-07 -180             2.77296597008245E-09 -180             3.23901271667537E-08 9.71285268497854E-15 
                5.49275512887483E-09 -1.40251848199381E-14 2.92910101706209E-08 -180             2.18783626272309E-09 -180             2.25716987234496E-12 4.97642555104194E-15 
                2.36097579978353E-09 180              0.00459935715591309 -180             5.31476140078767E-08 180              2.08559560485048E-07 -180             
                1.21754742289675E-09 -5.86893175551421E-15 
                1.75585836240144E-06 180              5.72379191511135E-07 180              3.4850860927063E-09 180              3.22984187267015E-07 180              
                2.7805883742944E-08 -4.03944912187501E-14 3.85051717372348E-07 -180             3.27608215371918E-07 -180             5.05829694329346E-11 -1.25811902157121E-14 
                2.75210823950803E-07 180              5.31476140078768E-08 180              0.000573548233150478 -179.999999999979 2.073486483486E-06 5.55520260416189E-15 
                3.21375080258945E-09 -1.60957358709598E-14 
                5.63585930927342E-07 -180             6.29222800482624E-08 180              3.88713671197106E-09 -1.20736617545288E-14 3.23678702330729E-06 -1.04233048200627E-15 
                2.81960367665475E-08 -2.76494457474491E-14 2.5160418560195E-07 4.08589240441277E-14 2.55903855620915E-07 1.03916914089505E-14 1.28765350257461E-10 -180             
                7.6951323792362E-08 180              2.08559560485048E-07 -180             2.073486483486E-06 -1.7616914068002E-14 0.00994912582887408 -180             
                6.5029013616707E-08 -8.16914895773363E-15 
                8.33068259690602E-09 180              7.37172012745811E-09 180              1.21569329470096E-10 -180             9.86723051946512E-08 3.66440916304994E-15 
                1.23364239394971E-09 -2.38625659386806E-14 4.04838188462851E-09 -180             8.41107226654273E-10 9.59454162857761E-15 9.00121734039163E-13 180              
                6.8314170635781E-10 180              1.21754742289675E-09 6.68401626179682E-15 3.21375080258946E-09 -1.24319044111656E-14 6.5029013616707E-08 2.75731502906595E-14 
                0.00190170659817013 -179.999999999997 
! Gamma         !               59.5939223012498 0                75.9748996017292 0                59.5940120805406 0                102.809825118614 0                
!               75.9742947688865 0                75.9743918312816 0                75.9741210792636 0                102.80993533645  0                
!               102.811184071707 0                75.9743705097886 0                75.9743499555269 0                102.809942832228 0                
!               59.5938259034483 0                
! Port Impedance0                31.0361233995244 0                60.7559714544363 0                62.0219557077409 0                29.9837983906755 
!               0                60.8902662556989 0                30.4440352015372 0                60.8352712296372 0                59.9491500492057 
!               0                59.8780379094186 0                60.8706026806074 0                30.4448700076956 0                29.9752499415457 
!               0                62.092360704365  

1                              0.00143452216505868 180              3.31428338432841E-06 180              1.67961584957657E-08 180              8.49822195525955E-07 -180             
                4.57018557898897E-08 180              2.36012303572789E-06 2.48045115935032E-15 8.70344030636717E-08 6.71703551549692E-21 2.34027033551424E-10 -180             
                1.46668767078905E-07 180              5.1097895340486E-08 180              1.91537510305259E-06 -180             6.30186410709294E-07 180              
                9.8159105255785E-09 -180             
                3.31428338432841E-06 180              0.000951940494719916 -180             2.87679264342353E-08 -180             4.49738550301672E-08 -180             
                1.22168677344478E-07 180              6.74407819420905E-07 -1.74980272845546E-16 4.72878839358559E-08 9.45889389280475E-22 9.62078468561809E-11 -180             
                1.99539734488941E-07 180              1.43935544353075E-07 180              6.2638992805999E-07 -180             6.83508904325872E-08 -180             
                8.47017943645688E-09 180              
                1.67961584957657E-08 -180             2.87679264342352E-08 -180             0.000704924472286428 -180             8.68964321438079E-09 -4.75008892438171E-21 
                4.70603785683998E-09 180              3.72720726111919E-09 -1.77995323208553E-15 5.31805928369181E-10 -6.74324543040335E-22 9.58869574796143E-13 180              
                1.15845997962195E-09 -180             3.13175685943821E-09 180              4.04318000076688E-09 180              4.48549539041528E-09 -1.70655171139217E-21 
                1.44700875931558E-10 180              
                8.49822195525955E-07 -180             4.4973855030167E-08 -180             8.68964321438079E-09 -8.55711511633896E-21 0.00206645089582669 180              
                2.91288426202387E-07 180              2.74909862187442E-06 -180             1.61481704478205E-07 -3.10994896747968E-21 2.08889570588493E-10 180              
                7.316462817347E-08 -180             3.61445699233258E-08 -1.36254222962259E-14 3.56942232615993E-07 180              3.44867796660099E-06 -5.47028507161832E-22 
                1.0839790553988E-07 3.90254640142481E-22 
                4.57018557898897E-08 180              1.22168677344478E-07 180              4.70603785683997E-09 180              2.91288426202387E-07 180              
                0.00318995348142215 -179.999999999996 4.78456113044877E-08 -3.07472710747991E-14 1.45583197645326E-09 180              8.77653169514655E-14 -2.22551325558093E-14 
                2.37086874676422E-09 180              6.12308597373298E-09 -3.74538099984951E-14 3.13482828718146E-08 -2.38597609175599E-14 3.14463294028763E-08 -2.36311992761577E-14 
                1.41679553594305E-09 -2.12324628845332E-14 
                2.36012303572789E-06 -7.32998483536746E-15 6.74407819420906E-07 -8.17535886418048E-15 3.72720726111919E-09 -6.89831528339135E-15 2.74909862187442E-06 180              
                4.78456113044878E-08 -3.28825481929562E-14 0.000430198121911141 -179.999999999978 6.1204123902883E-08 -7.68224354635359E-15 6.83826643417105E-10 180              
                1.00159392376382E-07 -8.12118476802363E-15 3.3093316163261E-08 180              4.19702424276481E-07 180              2.77160369507195E-07 -7.59702578142586E-15 
                4.67861279165486E-09 180              
                8.70344030636717E-08 5.24826626222498E-21 4.72878839358559E-08 1.77159045154965E-21 5.3180592836918E-10 8.63434990552871E-22 1.61481704478205E-07 -3.67920297503146E-21 
                1.45583197645326E-09 180              6.12041239028829E-08 1.23663082583986E-15 0.00325391088374039 180              1.71406509463882E-11 -180             
                1.10267521766965E-08 1.31297865338319E-21 2.44015614528886E-09 180              3.50424987591441E-07 -180             2.75704011908025E-07 1.50503880056697E-22 
                9.55649535761136E-10 -6.06360444925605E-22 
                2.34027033551425E-10 -180             9.62078468561806E-11 -180             9.58869574796138E-13 -180             2.08889570588493E-10 180              
                8.77653169514661E-14 -5.17346272361042E-13 6.83826643417103E-10 -180             1.71406509463882E-11 -180             0.00542874650081626 180              
                8.04405524812335E-12 -180             2.56632017062958E-12 -1.02760511422423E-14 5.55687450235367E-11 1.53655243034624E-20 1.42039671391625E-10 -180             
                1.02676203437509E-12 180              
                1.46668767078905E-07 180              1.99539734488941E-07 180              1.15845997962194E-09 180              7.31646281734699E-08 -180             
                2.37086874676422E-09 180              1.00159392376382E-07 1.70917949495134E-15 1.10267521766965E-08 1.81632539706417E-21 8.04405524812338E-12 -180             
                0.0080367635180576 180              2.62477489657732E-09 180              2.91747203778698E-07 -180             8.39169477228756E-08 180              
                7.90141536578786E-10 -180             
                5.10978953404861E-08 180              1.43935544353075E-07 180              3.13175685943821E-09 180              3.61445699233258E-08 -1.21513343197865E-14 
                6.12308597373299E-09 -3.77474160132354E-14 3.3093316163261E-08 180              2.44015614528886E-09 180              2.56632017062958E-12 -1.06061269785591E-14 
                2.62477489657733E-09 180              0.00456941484379048 -179.999999999999 5.71027296013647E-08 180              2.23419766797868E-07 180              
                1.39934821790878E-09 -1.19452435038627E-14 
                1.91537510305259E-06 180              6.26389928059991E-07 180              4.04318000076689E-09 180              3.56942232615994E-07 -180             
                3.13482828718147E-08 -1.85439229643984E-14 4.19702424276482E-07 180              3.50424987591441E-07 180              5.55687450235369E-11 -2.49109113246132E-20 
                2.91747203778697E-07 180              5.71027296013648E-08 180              0.000568034330323264 -180             2.20530061931623E-06 1.22367571396892E-22 
                3.73314189849019E-09 -2.68588619241326E-21 
                6.30186410709295E-07 180              6.83508904325878E-08 180              4.48549539041528E-09 -4.57701862301423E-22 3.448677966601E-06 -2.33697814993266E-21 
                3.14463294028763E-08 -5.11814429518447E-14 2.77160369507196E-07 9.47217624193448E-15 2.75704011908026E-07 6.25230655944658E-22 1.42039671391625E-10 -180             
                8.39169477228756E-08 180              2.23419766797868E-07 180              2.20530061931623E-06 -8.01625857428276E-22 0.00990136016075693 -180             
                7.16200523720152E-08 -8.02577793089457E-23 
                9.8159105255785E-09 180              8.47017943645687E-09 180              1.44700875931558E-10 180              1.0839790553988E-07 -9.31789192704668E-22 
                1.41679553594305E-09 -3.12000923222062E-14 4.67861279165486E-09 180              9.55649535761133E-10 3.0802148315925E-21 1.02676203437509E-12 -180             
                7.90141536578786E-10 180              1.39934821790879E-09 -1.5756621770464E-14 3.73314189849018E-09 -5.24551857122841E-21 7.16200523720153E-08 2.4005270615501E-22 
                0.00187755038767745 -180             
! Gamma         !               59.2335044824803 0                75.6925217410639 0                59.2335948080499 0                102.60132854378  0                
!               75.6919146518192 0                75.6920120763195 0                75.6917403142193 0                102.60143898559  0                
!               102.60269025837  0                75.6919906752838 0                75.6919700443414 0                102.6014464966   0                
!               59.2334074981266 0                
! Port Impedance0                32.8683863171504 0                64.1922028566167 0                65.6835072191424 0                31.626029178884  
!               0                64.3341298109442 0                32.1659061778748 0                64.2759994565381 0                63.2326010523923 
!               0                63.1575917039861 0                64.3133529101184 0                32.1667835557352 0                31.6170103256499 
!               0                65.7580711494545 

1.05                           0.00142717134806116 179.999999999997 3.46209130258382E-06 -180             1.89876417320546E-08 180              9.56407905615373E-07 -180             
                5.18476181847832E-08 -180             2.58369092391784E-06 -2.42842915228307E-14 9.58889824273509E-08 -8.41832922366269E-15 2.54901160059758E-10 -180             
                1.27916021023125E-07 -180             5.80127432105273E-08 180              2.10131933115803E-06 -180             7.09924513256487E-07 180              
                1.16896096201915E-08 -180             
                3.46209130258383E-06 -180             0.000945777945287297 180              3.08488751453534E-08 180              4.89904778933816E-08 180              
                1.33501524883133E-07 180              7.39930118594696E-07 -4.39952599395949E-14 5.24737937550511E-08 -3.09784992054143E-14 1.05623650978275E-10 -180             
                2.08158585819677E-07 -180             1.56668139002365E-07 180              6.89514897373376E-07 -180             7.46892339069995E-08 180              
                9.8197818167058E-09 -180             
                1.89876417320546E-08 180              3.08488751453533E-08 180              0.000702867590221451 -179.999999999979 9.96684776397378E-09 -5.83205943851868E-15 
                5.32329765717861E-09 180              4.37539956441144E-09 -6.87410636757311E-14 6.29140876612855E-10 -3.1722749021436E-14 1.12438250868501E-12 180              
                1.30686574769536E-09 -180             3.56407476636373E-09 180              4.73666628401443E-09 -180             5.22285847756632E-09 -2.21039907950363E-14 
                1.74102772812635E-10 180              
                9.56407905615371E-07 -180             4.89904778933813E-08 -180             9.96684776397373E-09 -1.67244413270015E-14 0.00204343378864683 -179.999999999996 
                3.12798330393853E-07 -180             2.93319972068451E-06 180              1.77131479516605E-07 -4.0404477624126E-14 2.28219589006163E-10 180              
                8.09314650513736E-08 -180             4.0631304273188E-08 -3.51667702301536E-14 3.97137065057828E-07 -180             3.68926773510692E-06 -6.01183287622438E-14 
                1.19778032618293E-07 9.40454806912625E-16 
                5.18476181847829E-08 180              1.33501524883134E-07 180              5.32329765717861E-09 180              3.12798330393855E-07 180              
                0.00317312830513543 -179.999999999999 5.14254584653387E-08 -5.90494788498727E-14 1.6628298801147E-09 180              1.37754850551932E-13 1.44655807211352E-13 
                2.64188794061855E-09 -180             6.87258151473542E-09 -3.53021430977922E-14 3.56325019866323E-08 1.6588188318677E-14 3.5325651968319E-08 -7.1556261186601E-14 
                1.64144695070882E-09 -1.55074776465798E-14 
                2.58369092391785E-06 -4.08997642372953E-14 7.39930118594699E-07 -4.89892498859916E-14 4.37539956441142E-09 -5.0282539560239E-14 2.93319972068452E-06 180              
                5.14254584653389E-08 -5.13167546303241E-14 0.000426686221397541 -179.999999999893 6.7442270016314E-08 -7.15803532243118E-14 7.33092643742773E-10 180              
                1.08356156009481E-07 -1.76944531601072E-14 3.76928918239266E-08 180              4.600103887692E-07 180              3.07330636572078E-07 -9.89518152736094E-14 
                5.4588611374163E-09 180              
                9.58889824273511E-08 -5.44534073943797E-15 5.2473793755051E-08 -1.50313131224727E-14 6.29140876612851E-10 -1.4630716982774E-14 1.77131479516606E-07 -1.2622498347387E-14 