! Touchstone file from project test_multiport
! Exported from HFSS 2019.2.0
!Data is not renormalized
# GHZ S MA
! Modal data exported
! Port[1] = 1:1
! Port[2] = 2:1
! Port[3] = 3:1
! Port[4] = 4:1
! Port[5] = 5:1
! Port[6] = 6:1
! Port[7] = 7:1
! Port[8] = 8:1
! Port[9] = 9:1
! Port[10] = 10:1
! Port[11] = 11:1
! Port[12] = 12:1
0.9                            0.000732622615749579 -179.999999999978 3.0518873904958E-06 180              1.36808171814453E-08 180              6.96749250155364E-07 180              
                3.67896539340554E-08 180              2.02640138686848E-06 -3.70293877872938E-14 7.19441999629139E-08 -1.48968940289002E-14 2.54689272229786E-10 180              
                1.91552723026345E-07 180              4.20055523805357E-08 180              1.65047908138921E-06 180              5.25168093838672E-07 180              
                3.0518873904958E-06 180              0.000831696710693719 -180             2.54265207667709E-08 -180             3.82689707209524E-08 -180             
                1.06795634518585E-07 -180             5.67753978272372E-07 -1.80877582970282E-14 3.82816167555433E-08 6.70499911983236E-20 9.13367469738126E-11 180              
                2.05925565474265E-07 -180             1.27171615076659E-07 -180             5.27091307189473E-07 -180             5.57918414247692E-08 -180             
                1.36808171814453E-08 180              2.54265207667709E-08 -180             0.000590994600283223 -180             6.926810473652E-09 -6.04660408634158E-15 
                3.96068957685636E-09 180              2.81736698263314E-09 -2.26887185233985E-14 3.9209404824995E-10 1.50050378768517E-20 6.82357217258949E-13 -180             
                1.06099419787799E-09 -180             2.5900724576721E-09 -180             3.09510816277741E-09 -180             3.60202500596912E-09 -7.74541263382192E-20 
                6.96749250155365E-07 180              3.82689707209526E-08 180              6.92681047365201E-09 -2.99982234391671E-15 0.00101705538346308 179.999999999999 
                2.69684402322455E-07 180              2.45472066237584E-06 180              1.37057094893974E-07 1.42432358240438E-15 6.0589028456422E-11 -3.34882666712386E-14 
                7.11723360794777E-08 180              3.01126422211811E-08 -2.6066841462075E-15 2.98160812452477E-07 180              3.12992090766302E-06 -1.97833791315885E-16 
                3.67896539340555E-08 180              1.06795634518586E-07 -180             3.96068957685635E-09 -180             2.69684402322456E-07 -180             
                0.00372404288815975 180              4.29795747467704E-08 -9.5944545730841E-15 1.21723533939298E-09 -180             3.44292716894416E-12 -180             
                2.09182808061082E-09 -180             5.36851766892543E-09 -8.76465904473088E-21 2.60693002572092E-08 -1.75533953341809E-20 2.59837133205834E-08 -2.25048794287374E-19 
                2.02640138686848E-06 -2.68830115613445E-14 5.67753978272371E-07 -1.00570928742636E-14 2.81736698263314E-09 -1.07549518159487E-14 2.45472066237586E-06 180              
                4.29795747467704E-08 -1.0214077923055E-14 0.000266806223254923 -179.999999999971 5.18567374887409E-08 -9.87776040881027E-15 3.03589960136817E-10 -180             
                9.60580462563061E-08 -9.72394559248513E-15 2.70117629350314E-08 180              3.58517720198427E-07 180              2.34922531337648E-07 -1.0534689807571E-14 
                7.19441999629135E-08 -1.74869992919382E-14 3.82816167555432E-08 7.91404684263363E-20 3.9209404824995E-10 -1.41928536304627E-20 1.37057094893974E-07 -1.58485089931935E-14 
                1.21723533939297E-09 180              5.1856737488741E-08 -1.61681402532816E-14 0.00217967341071024 -180             2.14049764156822E-11 -180             
                1.08641794944339E-08 2.72935211419567E-20 2.0252065188238E-09 -180             3.00426062829536E-07 180              2.46538462426621E-07 -2.77765724774797E-20 
                2.54689272229786E-10 180              9.13367469738125E-11 -180             6.82357217258949E-13 -180             6.05890284564218E-11 8.02761062014962E-14 
                3.44292716894415E-12 -180             3.03589960136817E-10 180              2.14049764156822E-11 -180             0.00218425804181133 180              
                1.69554427864115E-11 -180             4.38206894946936E-12 3.54728441349296E-15 8.12610329318098E-11 4.8065112612706E-15 1.24292734837349E-10 -180             
                1.91552723026345E-07 180              2.05925565474265E-07 -180             1.06099419787799E-09 -180             7.1172336079478E-08 180              
                2.09182808061081E-09 -180             9.60580462563061E-08 -1.85185265538191E-14 1.08641794944339E-08 3.6382022327176E-20 1.69554427864115E-11 180              
                0.0100978000427209 -180             2.58243370161355E-09 -180             3.03488969405003E-07 -180             8.12990374669928E-08 -180             
                4.20055523805357E-08 180              1.27171615076659E-07 -180             2.5900724576721E-09 -180             3.01126422211811E-08 1.24879734891013E-14 
                5.36851766892543E-09 -1.62234910979985E-20 2.70117629350314E-08 180              2.0252065188238E-09 180              4.38206894946935E-12 5.72933137916124E-15 
                2.58243370161354E-09 -180             0.00366948099075437 -180             5.16530107148269E-08 -180             2.09555187416929E-07 180              
                1.65047908138921E-06 180              5.27091307189473E-07 -180             3.09510816277742E-09 -180             2.98160812452476E-07 -180             
                2.60693002572092E-08 -5.81592785246919E-22 3.58517720198427E-07 180              3.00426062829536E-07 180              8.12610329318096E-11 1.25675021252405E-14 
                3.03488969405003E-07 -180             5.1653010714827E-08 -180             0.0011289813082781 -180             2.03946429170667E-06 -1.08145885901321E-20 
                5.25168093838672E-07 180              5.57918414247693E-08 -180             3.60202500596913E-09 -6.37861056947875E-20 3.12992090766303E-06 -3.47291136344929E-15 
                2.59837133205833E-08 2.00083280120623E-19 2.34922531337648E-07 -1.95715553286536E-15 2.46538462426621E-07 -3.72103879373302E-21 1.24292734837349E-10 -180             
                8.1299037466993E-08 180              2.09555187416929E-07 -180             2.03946429170667E-06 -1.75798810446333E-21 0.00699730663445897 -180             
! Gamma         !               59.9338536558494 0                76.2418713048806 0                59.933927723647  0                103.00723601074  0                
!               76.241113742477  0                76.2412967911362 0                76.2410410461996 0                103.007331344976 0                
!               103.007366328817 0                76.2413025410243 0                76.2412319667894 0                103.007312370645 0                
! Port Impedance0                29.2358795501991 0                57.3613351251904 0                58.4265851367818 0                28.351144427555  
!               0                57.4819153933399 0                28.7436975435489 0                57.4587305052697 0                56.6874508534744 
!               0                56.6804957711463 0                57.4649899458727 0                28.7382255547704 0                28.3451127797424 

0.95                           0.000728274812298202 -179.999999999998 3.17803268610555E-06 180              1.52589092099004E-08 180              7.72896668472648E-07 180              
                4.10964224483428E-08 180              2.19383217346361E-06 -3.0722347571773E-15 7.84122398174874E-08 -3.27993567250016E-15 2.75871883399239E-10 180              
                1.77756726664032E-07 180              4.69192991937329E-08 -180             1.78993399714126E-06 180              5.82832177281853E-07 180              
                3.17803268610555E-06 180              0.000827177191803474 -180             2.71392260216458E-08 -180             4.11817649678993E-08 -180             
                1.15398457627298E-07 -180             6.15936352462655E-07 1.29847803785615E-19 4.19732196314273E-08 5.72852483961206E-21 9.94787167822529E-11 -180             
                2.13983502224706E-07 -180             1.36908281281466E-07 -180             5.735484281603E-07 180              6.0286011801105E-08 -180             
                1.52589092099004E-08 180              2.7139226021646E-08 180              0.000591383246273836 179.999999999996 7.81195141883585E-09 -4.96580956001005E-16 
                4.41540620980847E-09 180              3.24460208353736E-09 -1.54090235017038E-16 4.5481065721366E-10 -9.86882191075708E-18 7.89582779387955E-13 180              
                1.18034533624708E-09 180              2.90218659233904E-09 -180             3.55659849359341E-09 -180             4.11753431631628E-09 -7.7186974547124E-16 
                7.72896668472648E-07 180              4.11817649678992E-08 -180             7.81195141883584E-09 -3.83728350846731E-15 0.00100135601170537 179.999999999997 
                2.87025949366785E-07 -180             2.59841066771985E-06 -180             1.4872944445895E-07 8.96364559874737E-15 6.09281182597195E-11 8.20643772905354E-15 
                7.76597107195006E-08 -180             3.33597466748053E-08 9.38230247749023E-15 3.27393515099873E-07 -180             3.32138349906212E-06 6.95699917353612E-15 
                4.10964224483428E-08 180              1.15398457627298E-07 -180             4.41540620980846E-09 180              2.87025949366785E-07 -180             
                0.00370667113963696 180              4.58552301244929E-08 2.52258177602835E-19 1.36539912538026E-09 -180             3.70183486172518E-12 -180             
                2.29526289175121E-09 180              5.93974791069406E-09 1.01643386786182E-14 2.91379433291488E-08 -3.96102537139362E-15 2.87772031623346E-08 -4.64253570400428E-19 
                2.19383217346362E-06 -7.81458250143037E-15 6.15936352462656E-07 1.1250116593258E-19 3.24460208353736E-09 -7.88256845868919E-15 2.59841066771986E-06 180              
                4.58552301244929E-08 9.00880665301353E-20 0.000264433608468728 -180             5.64529338397561E-08 -9.97426398569966E-20 3.339961526699E-10 180              
                1.02916429715076E-07 3.06124713580817E-20 3.0271577266171E-08 -180             3.88596681384941E-07 180              2.57109854464577E-07 -4.37580321010625E-20 
                7.84122398174873E-08 -1.19610154645769E-14 4.19732196314272E-08 3.37142893197248E-20 4.54810657213661E-10 -7.5837664162027E-15 1.48729444458951E-07 -4.44243950424862E-15 
                1.36539912538026E-09 180              5.64529338397561E-08 -7.31647827075573E-20 0.00216631446638082 -180             2.31762223222948E-11 180              
                1.15042161024972E-08 -8.48807967091628E-20 2.24102164131887E-09 -180             3.20165606654184E-07 180              2.64343585530992E-07 3.26796377923806E-20 
                2.75871883399239E-10 180              9.94787167822528E-11 -180             7.89582779387953E-13 180              6.09281182597196E-11 1.5780199710825E-14 
                3.70183486172518E-12 -180             3.339961526699E-10 180              2.31762223222948E-11 180              0.00217590377011567 -180             
                1.78804896778368E-11 -180             4.89572112977301E-12 9.77991945700892E-15 8.74085859156411E-11 -1.41320702765375E-17 1.36524822989355E-10 180              
                1.77756726664032E-07 -180             2.13983502224706E-07 -180             1.18034533624708E-09 180              7.76597107195008E-08 -180             
                2.29526289175121E-09 180              1.02916429715077E-07 1.03241699962645E-20 1.15042161024972E-08 -1.22546679428338E-19 1.78804896778368E-11 180              
                0.0100815445966116 -180             2.84240531213787E-09 -180             3.20129909350288E-07 180              8.81117518232237E-08 180              
                4.69192991937327E-08 -180             1.36908281281466E-07 -180             2.90218659233904E-09 -180             3.33597466748055E-08 6.31441426071982E-15 
                5.93974791069406E-09 9.34358071020988E-15 3.02715772661709E-08 -180             2.24102164131887E-09 -180             4.89572112977301E-12 7.78184295781429E-15 
                2.84240531213786E-09 -180             0.00364087349818165 179.999999999998 5.52605927755386E-08 180              2.23415787619306E-07 -180             
                1.78993399714126E-06 180              5.73548428160301E-07 -180             3.55659849359342E-09 180              3.27393515099873E-07 -180             
                2.91379433291489E-08 2.8294049348592E-15 3.88596681384941E-07 -180             3.20165606654183E-07 -180             8.74085859156411E-11 1.88690618393848E-15 
                3.20129909350287E-07 -180             5.52605927755386E-08 -180             0.00112137895208908 179.999999999995 2.15991406935414E-06 1.24313608600045E-15 
                5.82832177281853E-07 180              6.0286011801105E-08 -180             4.11753431631628E-09 2.44281792308553E-15 3.32138349906211E-06 -1.54001401496875E-14 
                2.87772031623346E-08 3.36573786499426E-19 2.57109854464577E-07 4.47481524614351E-19 2.64343585530992E-07 1.26287005500857E-20 1.36524822989355E-10 -180             
                8.81117518232237E-08 180              2.23415787619305E-07 -180             2.15991406935414E-06 -6.56051444334605E-15 0.00696661098841567 -180             
! Gamma         !               59.5939223012498 0                75.9749412719524 0                59.593996791539  0                102.809821669814 0                
!               75.9741810479056 0                75.9743647396989 0                75.9741080962122 0                102.809917187109 0                
!               102.809952238126 0                75.9743705097887 0                75.9742996875946 0                102.809898176344 0                
! Port Impedance0                31.0361233995255 0                60.7607883114256 0                62.0242869282177 0                29.9836711752877 
!               0                60.8885312988044 0                30.4471696088853 0                60.8639607770636 0                59.9516496918903 
!               0                59.9442937203008 0                60.8706026806064 0                30.4413685252677 0                29.9772921467323 

1                              0.000723427695753842 180              3.31450345610322E-06 180              1.71300955220016E-08 -180             8.63348959930247E-07 -180             
                4.62713705262679E-08 180              2.38774791351692E-06 8.45527773226365E-15 8.5922506567324E-08 3.02814464402993E-15 3.00273866237116E-10 -180             
                1.60409873594647E-07 180              5.28161793200029E-08 -180             1.95177554202358E-06 180              6.51435583878537E-07 -180             
                3.31450345610321E-06 180              0.000822393148180889 180              2.90392404984497E-08 -180             4.45784020582661E-08 -180             
                1.25364815385097E-07 180              6.71931028248668E-07 6.95278723138158E-15 4.63017889725764E-08 3.45395758020548E-15 1.08938239926032E-10 -180             
                2.22712682937227E-07 180              1.48145652699294E-07 -180             6.27603461656029E-07 -180             6.55096204006405E-08 -180             
                1.71300955220017E-08 180              2.90392404984497E-08 180              0.000591932802746498 -179.999999999997 8.88243206254595E-09 4.80343201838677E-15 
                4.95655307368745E-09 180              3.77169953790415E-09 8.50000399153278E-15 5.32728129549751E-10 6.74460238628509E-15 9.22176705998455E-13 180              
                1.32162186203873E-09 -180             3.27586919816021E-09 180              4.12519476142369E-09 -180             4.74767718254054E-09 2.4506973402618E-17 
                8.6334895993025E-07 -180             4.45784020582657E-08 -180             8.88243206254598E-09 1.78702762403399E-14 0.000984597960209332 179.999999999994 
                3.0673810535667E-07 180              2.76122666575763E-06 -180             1.62290039245244E-07 1.65626161552567E-14 6.10468353503213E-11 1.1543326054661E-14 
                8.52357386361521E-08 -180             3.72170132728246E-08 1.24089588601982E-14 3.61822196628617E-07 -180             3.53826062082868E-06 1.18791098293999E-14 
                4.6271370526268E-08 180              1.25364815385097E-07 -180             4.95655307368744E-09 -180             3.0673810535667E-07 -180             
                0.00368833666164392 -179.999999999999 4.90918285011804E-08 1.90242790445163E-14 1.54453665924382E-09 180              3.99486820253169E-12 180              
                2.53803935515211E-09 180              6.61496970618325E-09 -5.8453554296749E-16 3.28228722160447E-08 -3.34005205827332E-15 3.20927737872893E-08 -2.37179493602247E-15 
                2.38774791351693E-06 6.63847242343496E-15 6.71931028248665E-07 6.38495254183507E-15 3.77169953790415E-09 9.51737188305656E-15 2.76122666575763E-06 -180             
                4.90918285011804E-08 -6.10772589802588E-15 0.000261886486772833 179.999999999968 6.18070254148616E-08 1.21491462583879E-14 3.68925516954901E-10 -180             
                1.10790754127747E-07 6.28082962834843E-15 3.41880069078569E-08 -180             4.23443026772276E-07 -180             2.8317285512671E-07 6.03593858484601E-15 
                8.5922506567324E-08 5.25463574611798E-15 4.63017889725764E-08 4.86108861539805E-15 5.32728129549751E-10 7.58199462836854E-15 1.62290039245243E-07 1.8662238376094E-14 
                1.54453665924383E-09 180              6.18070254148616E-08 1.3771900310577E-14 0.00215227721504541 179.999999999999 2.52294432154334E-11 -180             
                1.22224413959637E-08 5.49866706189431E-15 2.49776835311478E-09 -180             3.42560875806932E-07 -180             2.84722031871379E-07 5.82267199144866E-15 
                3.00273866237117E-10 -180             1.08938239926032E-10 -180             9.22176705998453E-13 -180             6.10468353503211E-11 -4.33796128702136E-14 
                3.99486820253168E-12 180              3.68925516954901E-10 -180             2.52294432154335E-11 -180             0.00216712030632815 180              
                1.89134306838282E-11 -180             5.51077483395093E-12 1.45036073302241E-20 9.44720432262586E-11 -3.0945491590484E-15 1.50877201555115E-10 -180             
                1.60409873594648E-07 180              2.22712682937227E-07 -180             1.32162186203873E-09 -180             8.52357386361523E-08 -180             
                2.53803935515211E-09 180              1.10790754127747E-07 2.3556650567105E-15 1.22224413959636E-08 5.30806550004555E-16 1.89134306838282E-11 -180             
                0.0100644968596468 -180             3.1499703889451E-09 -180             3.3887812556256E-07 180              9.60305522938355E-08 -180             
                5.28161793200029E-08 -180             1.48145652699294E-07 -180             3.27586919816022E-09 -180             3.72170132728245E-08 2.77059236275062E-14 
                6.61496970618326E-09 -1.08825867891952E-14 3.41880069078568E-08 -180             2.49776835311478E-09 180              5.51077483395093E-12 4.43237721558385E-20 
                3.1499703889451E-09 -180             0.00361077333141591 180              5.93450312993731E-08 -180             2.39201582230655E-07 180              
                1.95177554202358E-06 180              6.27603461656029E-07 180              4.1251947614237E-09 180              3.61822196628615E-07 180              
                3.28228722160447E-08 -2.26246707652176E-14 4.23443026772278E-07 -180             3.42560875806933E-07 -180             9.44720432262587E-11 -2.23564153932797E-15 
                3.38878125562561E-07 180              5.9345031299373E-08 180              0.00111330902898021 -179.999999999997 2.29641951717146E-06 -3.07732478958654E-15 
                6.51435583878537E-07 -180             6.55096204006407E-08 180              4.74767718254054E-09 6.26694475114465E-15 3.53826062082868E-06 3.08084050645334E-14 
                3.20927737872893E-08 4.39399256386409E-15 2.8317285512671E-07 1.19241111308288E-14 2.8472203187138E-07 8.64115159347064E-16 1.50877201555114E-10 180              
                9.60305522938355E-08 -180             2.39201582230654E-07 180              2.29641951717146E-06 -2.71769142547946E-15 0.0069341093187355 180              
! Gamma         !               59.2335044824803 0                75.6925635667416 0                59.2335794260198 0                102.601325087972 0                
!               75.6918005065842 0                75.6919848836678 0                75.6917272827324 0                102.601420799367 0                
!               102.601455921611 0                75.6919906752839 0                75.6919195888773 0                102.601401749971 0                
! Port Impedance0                32.8683863171511 0                64.197308921122  0                65.6859765235724 0                31.6258949932361 
!               0                64.3322956557595 0                32.1692179946696 0                64.3063223537323 0                63.2352375519159 
!               0                63.2274782422141 0                64.3133529101195 0                32.163083384501  0                31.6191665096856 

1.05                           0.000718011594733154 -179.999999999993 3.46135472541106E-06 180              1.93579764512313E-08 -180             9.7141683428779E-07 -180             
                5.25325020644609E-08 180              2.61322733005116E-06 3.97754798659178E-15 9.46732477624351E-08 3.81073818291761E-15 3.28467372175859E-10 -180             
                1.38622115144163E-07 180              5.99410412329307E-08 180              2.14036687261532E-06 180              7.33538274375819E-07 -180             
                3.46135472541103E-06 -180             0.000817338398271485 180              3.11378033401285E-08 180              4.85635687448375E-08 -180             
                1.36959401661491E-07 180              7.37291106597791E-07 4.8393641559583E-15 5.14015369245806E-08 6.16549559055522E-15 1.19972427154823E-10 180              
                2.32130624085506E-07 180              1.61166609152865E-07 180              6.90775490951799E-07 -180             7.16107565533114E-08 -180             
                1.93579764512313E-08 -180             3.11378033401281E-08 -180             0.000592672432109555 -179.99999999999 1.01861054831356E-08 6.79557576602742E-15 
                5.60402550305108E-09 180              4.42741271912348E-09 5.69724784522271E-15 6.30372350210497E-10 1.2359470236854E-14 1.08747201468421E-12 -180             
                1.48958239157514E-09 -180             3.72590620147851E-09 180              4.83157755606749E-09 -180             5.5236753637296E-09 4.7502943776747E-15 
                9.71416834287796E-07 -180             4.85635687448372E-08 -180             1.01861054831357E-08 3.66931721218281E-14 0.000966738111626205 179.999999999994 
                3.29202130950709E-07 180              2.94619805215356E-06 -180             1.78109059397225E-07 1.74798584629033E-14 6.08582170839243E-11 -8.15358511949275E-15 
                9.41248707137052E-08 -180             4.1825739406139E-08 7.74486733334853E-15 4.02578383017203E-07 -180             3.78449299012866E-06 7.42559979033045E-15 
                5.25325020644612E-08 180              1.36959401661492E-07 -180             5.60402550305106E-09 -180             3.29202130950708E-07 180              
                0.00366903480076535 -179.999999999998 5.27334462490429E-08 2.9521838295237E-14 1.76271716266449E-09 180              4.32635094500989E-12 -180             
                2.82977304817982E-09 180              7.41718867833504E-09 -1.54830363276195E-14 3.72772753621156E-08 -2.89037257577567E-16 3.60502017276787E-08 3.73661967321615E-15 
                2.61322733005116E-06 1.16108625443163E-14 7.37291106597785E-07 7.1785623348087E-15 4.42741271912348E-09 2.42121262817779E-14 2.94619805215356E-06 -180             
                5.27334462490429E-08 -1.48087371733564E-14 0.000259153229402854 179.999999999954 6.80709181270157E-08 1.75308460887486E-14 4.09150725948982E-10 -180             
                1.1986386231852E-07 7.1277613448246E-15 3.89242045391884E-08 180              4.63968353276438E-07 -180             3.13941800221933E-07 1.15252279963655E-14 
                9.46732477624351E-08 1.88289898635231E-14 5.14015369245806E-08 8.67726717546282E-15 6.30372350210494E-10 2.50939965948861E-14 1.78109059397222E-07 3.29141674575578E-14 
                1.7627171626645E-09 180              6.80709181270157E-08 1.77942528635347E-14 0.00213756944943474 179.999999999998 2.76190672459065E-11 -180             
                1.30289932249766E-08 9.61192640802605E-15 2.80513034791519E-09 -180             3.68025663795701E-07 -180             3.08116039280302E-07 1.01879305534402E-14 
                3.28467372175861E-10 -180             1.19972427154823E-10 -180             1.08747201468421E-12 -180             6.08582170839237E-11 -6.73352809455192E-14 
                4.32635094500987E-12 180              4.09150725948983E-10 -180             2.76190672459065E-11 -180             0.00215791133492093 180              
                2.00675359786738E-11 -180             6.25187638435528E-12 -1.25892323449191E-14 1.02614312668619E-10 -3.48624314792444E-15 1.67794224045038E-10 -180             
                1.38622115144164E-07 180              2.32130624085506E-07 -180             1.48958239157515E-09 -180             9.41248707137054E-08 -180             
                2.82977304817982E-09 180              1.19863862318519E-07 -3.46589470637784E-15 1.30289932249765E-08 9.28039501456557E-16 2.00675359786738E-11 180              
                0.0100466712512797 180              3.51601671398645E-09 180              3.60044626916941E-07 -180             1.05276368594916E-07 -180             
                5.9941041232931E-08 180              1.61166609152865E-07 180              3.72590620147853E-09 180              4.18257394061385E-08 4.61793390015939E-14 
                7.41718867833506E-09 -3.27494865136023E-14 3.89242045391884E-08 -180             2.80513034791519E-09 180              6.25187638435528E-12 -8.7622278048201E-15 
                3.51601671398645E-09 180              0.00357918975997156 -179.999999999997 6.39724848681721E-08 -180             2.57228411359217E-07 180              
                2.14036687261532E-06 -180             6.90775490951798E-07 180              4.83157755606749E-09 180              4.02578383017199E-07 180              
                3.72772753621154E-08 -4.51547598960206E-14 4.63968353276441E-07 180              3.68025663795703E-07 -180             1.02614312668619E-10 -1.4283683379929E-15 
                3.60044626916943E-07 180              6.39724848681719E-08 180              0.00110475800494257 -179.999999999988 2.45152035180374E-06 -4.23571728424018E-15 
                7.3353827437582E-07 -180             7.16107565533117E-08 -180             5.52367536372961E-09 8.23663583469642E-15 3.78449299012868E-06 7.42387306821253E-14 
                3.60502017276784E-08 8.51580195632779E-15 3.13941800221933E-07 2.08722473833499E-14 3.08116039280302E-07 1.83949528209681E-15 1.67794224045038E-10 -180             
                1.05276368594916E-07 -180             2.57228411359218E-07 180              2.45152035180374E-06 4.30732960017636E-15 0.00689977136093972 -180             
! Gamma         !               58.8522238163233 0                75.3945646194459 0                58.8522992453923 0                102.381678559488 0                
!               75.3937985432432 0                75.3939836490947 0                75.393725029966  0                102.38177447622  0                
!               102.381809673813 0                75.3939894636027 0                75.3939180962209 0                102.381755385955 0                
! Port Impedance0                34.7353921009032 0                67.6735813285613 0                69.4170972110876 0                33.2784304064948 
!               0                67.8158987647924 0                33.9111880089821 0                67.7885042534836 0                66.5394431588697 
!               0                66.531277906287  0                67.7959301411687 0                33.9047151027936 0                33.2713502621231 

1.1                            0.000711941722501441 180              3.61837065345968E-06 180              2.20206150323026E-08 -180             1.10132290413359E-06 -180             
                6.01624720680368E-08 -180             2.87656471111006E-06 -1.20890812308973E-21 1.0490675834281E-07 -3.20355215793647E-20 3.61145515495605E-10 180              
                1.11301137682734E-07 180              6.8610965484957E-08 180              2.36112685718723E-06 -180             8.32411226108985E-07 -180             
                3.61837065345967E-06 180              0.00081200545249871 180              3.34424515143557E-08 -180             5.32729526548856E-08 -180             