! Touchstone file from project test_multiport
! Exported from HFSS 2019.2.0
!Data is not renormalized
# GHZ S MA
! Modal data exported
! Port[1] = 1:1
! Port[2] = 2:1
0.9                            0.000169175363660012 180              3.05824247916449E-06 180              3.0582424791645E-06 180              0.000159273082614875 180              
! Gamma         !               59.9338044432531 0                76.2417832451449 0                
! Port Impedance0                29.2404866810169 0                57.3957550563277 

0.95                           0.0001658081085123 180              3.18587729661685E-06 180              3.18587729661685E-06 180              0.000158321962760222 180              
! Gamma         !               59.5938728079383 0                75.9748529028276 0                
! Port Impedance0                31.0410142309467 0                60.7972585918393 

1                              0.00016197172875354 -180             3.32403669138675E-06 -180             3.32403669138675E-06 -180             0.000157276854938271 -180             
! Gamma         !               59.2334546880171 0                75.6924748679478 0                
! Port Impedance0                32.8735658968196 0                64.2358537494855 

1.05                           0.0001575917874164 -179.999999999987 3.47280749037608E-06 180              3.47280749037609E-06 180              0.000156127636182523 -180             
! Gamma         !               58.8521736992611 0                75.3944755700674 0                
! Port Impedance0                34.7408659059066 0                67.714226692723  

1.1                            0.00015257844435923 -179.999999999937 3.63201210930634E-06 180              3.63201210930635E-06 180              0.000154862393834998 -180             
! Gamma         !               58.4496215625092 0                75.0806690044653 0                
! Port Impedance0                36.6458497205978 0                71.235198554912  

