! Touchstone file from project test_multiport
! Exported from HFSS 2019.2.0
!Data is not renormalized
# GHZ S MA
! Modal data exported
! Port[1] = 1:1
! Port[2] = 2:1
! Port[3] = 3:1
! Port[4] = 4:1
! Port[5] = 5:1
! Port[6] = 6:1
! Port[7] = 7:1
! Port[8] = 8:1
! Port[9] = 9:1
! Port[10] = 10:1
! Port[11] = 11:1
! Port[12] = 12:1
! Port[13] = 13:1
! Port[14] = 14:1
! Port[15] = 15:1
! Port[16] = 16:1
! Port[17] = 17:1
! Port[18] = 18:1
! Port[19] = 19:1
0.9                            0.000357652365959416 180              2.39308412803477E-06 180              1.21177345450383E-08 180              6.71496772754739E-07 -180             
                3.47558344013221E-08 180              1.94399164011519E-06 3.09773703872541E-14 6.99763857490151E-08 3.96278003486263E-20 2.62478445285324E-10 -180             
                2.68398282842575E-07 180              4.34249667004043E-08 180              1.56469160183031E-06 180              5.25397360573704E-07 -180             
                6.7061964753342E-09 -180             5.97382416393703E-07 1.59357763231366E-19 1.06343163131146E-06 -1.78754305096871E-14 1.03576242877116E-07 1.3898894917061E-21 
                4.1702516610144E-08 -1.25476260838178E-14 5.49879336870381E-11 2.22061220286651E-19 6.97992778764203E-08 -180             
                2.39308412803476E-06 180              0.000522454163206953 180              2.35827739364449E-08 -180             4.09152607398769E-08 -180             
                1.04876237333878E-07 180              5.61869309721495E-07 2.80923574976019E-14 3.8311238557834E-08 1.44767087149213E-20 9.72420263394091E-11 -180             
                1.63502528481181E-07 180              1.25828182462488E-07 180              5.19426940274002E-07 180              6.83964047493621E-08 -180             
                6.23189458274929E-09 -180             4.50864868360298E-07 8.67895602245077E-20 6.17035754214605E-07 -1.59279199745151E-14 1.98594062558724E-07 2.08696348846526E-21 
                4.27127476230354E-08 -1.96064503791627E-14 3.88430279570568E-12 1.07807812353074E-18 1.16639949969995E-07 -180             
                1.21177345450383E-08 180              2.35827739364449E-08 -180             0.000404224060963298 -180             6.24886007924439E-09 -1.24731664519538E-19 
                3.76112804207307E-09 180              2.6797917083312E-09 3.06724074971682E-14 3.68024744898271E-10 8.65335434287732E-22 6.99295230013997E-13 -180             
                7.72541157853613E-10 -180             2.45406040022692E-09 180              2.92620268295742E-09 180              3.52601634224875E-09 -1.06086247455658E-19 
                9.62469051661531E-11 -180             5.80737923446898E-09 6.83741910790955E-20 6.38315850780111E-09 -1.8339242588981E-14 2.87635283773993E-09 2.53869867676423E-21 
                6.69930365270647E-10 -1.71938271064179E-14 5.02516558951102E-13 180              1.23811498208039E-09 -7.82803976557051E-22 
                6.7149677275474E-07 -180             4.09152607398766E-08 -180             6.24886007924439E-09 -6.36074834401443E-20 1.63511971884578E-05 -3.39853365749233E-21 
                2.6209812728263E-07 -180             2.42645579813027E-06 -180             1.31005865283043E-07 -3.41103714913234E-20 7.54592739152133E-11 2.16952484211175E-14 
                5.29629469402688E-08 -180             3.36371683150346E-08 -6.2280651151529E-15 2.995927202871E-07 180              3.30159825269631E-06 -4.80102440549525E-20 
                8.89630548174501E-08 8.37411247760834E-17 2.47845328615402E-06 3.24754179736752E-20 4.73742754562298E-06 -8.63622398182084E-15 8.76488823279043E-08 180              
                2.38773998358608E-07 180              3.41713737342225E-09 180              4.02811559794066E-08 3.30497023686146E-21 
                3.47558344013221E-08 180              1.04876237333877E-07 180              3.76112804207306E-09 180              2.6209812728263E-07 -180             
                0.0015252465151715 180              4.34419272307067E-08 2.67901082929807E-14 1.23052139333571E-09 180              3.678532822268E-12 180              
                1.72399508082785E-09 180              5.54196335837877E-09 -1.0350191755028E-14 2.63008378685694E-08 -4.21299781071222E-20 2.79066606196848E-08 5.81288943018903E-20 
                1.11725284131629E-09 4.428386417975E-15 4.75558286294418E-08 -180             3.02027110791371E-08 180              9.79387425414194E-09 -5.70163422612028E-21 
                5.51335199265599E-09 180              6.37654359068695E-11 180              7.67614946312397E-10 -180             
                1.94399164011519E-06 3.1988745645706E-14 5.61869309721494E-07 3.25722862234821E-14 2.67979170833119E-09 3.15724742415534E-14 2.42645579813027E-06 -180             
                4.34419272307068E-08 3.25482466972134E-14 0.00021860713553179 179.999999999871 5.21270817161444E-08 3.16443403406193E-14 3.43910883632175E-10 -180             
                7.65845182714714E-08 3.28183068312894E-14 2.75903730187249E-08 -180             3.5831263001415E-07 -180             2.50599799202136E-07 3.18807670777229E-14 
                3.43225951333992E-09 -180             5.8048748646784E-07 3.21700602030218E-14 1.97436066148847E-06 1.79003631683109E-14 1.7479270754868E-08 -180             
                1.06355427884997E-08 1.43699312715909E-14 1.23844411930967E-10 3.25332547484645E-14 8.14706135507708E-09 -180             
                6.9976385749015E-08 3.7731602725817E-20 3.83112385578339E-08 1.41662791446831E-20 3.68024744898271E-10 -7.55928382084227E-22 1.31005865283043E-07 -6.06416533167634E-20 
                1.2305213933357E-09 180              5.21270817161445E-08 3.0012109314135E-14 0.00133998142853542 180              2.23875963969835E-11 180              
                8.63738949195535E-09 8.09520858743752E-21 1.85434246869161E-09 180              3.03047801327027E-07 180              2.53047884349275E-07 -8.68312995042589E-21 
                7.1036397517025E-10 4.88884301403424E-15 9.5345043510566E-08 180              3.96411704210034E-08 -1.93861629202143E-14 4.37491037436833E-09 180              
                4.52593806859555E-09 -180             8.52312910217534E-12 180              7.59279694867399E-10 -2.514254939794E-20 
                2.62478445285324E-10 180              9.72420263394092E-11 180              6.99295230013999E-13 180              7.54592739152135E-11 -1.16161214602729E-15 
                3.67853282226801E-12 180              3.43910883632174E-10 -180             2.23875963969835E-11 180              0.00120530643958094 -179.999999999997 
                1.42434776974727E-11 180              4.67649307551981E-12 -6.66238827537442E-15 8.60496346782788E-11 -2.84915480665648E-16 1.4092574993788E-10 180              
                3.7463443026195E-13 -180             3.27899493872124E-12 180              2.12942544209411E-10 180              6.0229917681882E-12 -8.62516382652617E-16 
                1.88229878368408E-12 5.91729967317565E-15 5.21937881145615E-15 180              4.88654388696897E-13 -4.9610315158331E-16 
                2.68398282842575E-07 180              1.63502528481181E-07 180              7.72541157853614E-10 -180             5.29629469402688E-08 -180             
                1.72399508082784E-09 180              7.65845182714714E-08 3.41518647577276E-14 8.63738949195535E-09 8.55590047063254E-21 1.42434776974728E-11 180              
                0.00580980052460944 180              2.05131827734763E-09 180              2.31956715812866E-07 180              6.98978531281148E-08 -180             
                5.13180058872125E-10 180              4.97121297473783E-08 1.52872594291184E-19 9.1039464915671E-08 -2.19548799630095E-14 8.22369201064549E-09 1.07125879367633E-20 
                3.4554734572954E-09 -1.87657303844748E-14 3.08641459626905E-12 2.4433626216652E-19 5.06344192119687E-09 -180             
                4.34249667004044E-08 -180             1.25828182462488E-07 -180             2.45406040022692E-09 -180             3.36371683150346E-08 3.37248912844212E-15 
                5.54196335837874E-09 2.76880099299327E-15 2.75903730187248E-08 -180             1.85434246869159E-09 -180             4.6764930755198E-12 1.85968416767271E-14 
                2.05131827734763E-09 -180             0.000990283281474436 179.999999999997 5.2977580976448E-08 -180             2.32998635203235E-07 -180             
                1.12163989718448E-09 3.84424895695831E-16 5.36426316029047E-08 -180             3.00799355525968E-08 180              4.02093193794505E-08 4.32168252768735E-15 
                1.61100885209195E-08 180              8.97645244777051E-12 2.86555596291961E-15 3.30736426956127E-08 2.98984184816236E-15 
                1.56469160183031E-06 180              5.19426940274002E-07 180              2.92620268295743E-09 180              2.995927202871E-07 180              
                2.63008378685694E-08 -3.13259489045704E-20 3.5831263001415E-07 -180             3.03047801327027E-07 180              8.60496346782789E-11 -2.42458100339403E-15 
                2.31956715812866E-07 180              5.2977580976448E-08 180              0.0004060179815909 -180             2.13511607141634E-06 2.592809640674E-20 
                2.70613198601235E-09 6.44202711057152E-15 5.83675659213807E-07 -180             1.57355271370336E-06 180              2.25454212727866E-08 -4.42659102326259E-20 
                1.42017549017922E-08 180              7.63330393069131E-11 -5.54891852371177E-20 4.30310035676853E-08 180              
                5.25397360573706E-07 180              6.83964047493619E-08 180              3.52601634224875E-09 -1.25270704332215E-20 3.3015982526963E-06 -3.2842768262996E-20 
                2.79066606196849E-08 3.32028160261392E-20 2.50599799202135E-07 5.05877394486734E-14 2.53047884349275E-07 6.66566276096405E-22 1.40925749937879E-10 -180             
                6.98978531281147E-08 -180             2.32998635203234E-07 -180             2.13511607141634E-06 7.41764232161362E-21 0.00147772098989418 -180             
                6.27712967893957E-08 9.5887886354693E-16 2.2321690174974E-06 2.06921682898831E-20 3.42536909584422E-06 -4.44346012815309E-15 9.50902015434245E-08 180              
                1.0746078280837E-06 180              4.09599041253308E-11 180              6.54251507650555E-08 -180             
                6.70619647533422E-09 180              6.2318945827493E-09 180              9.62469051661535E-11 180              8.89630548174504E-08 -5.05789206327538E-15 
                1.11725284131629E-09 -5.96256588659461E-15 3.43225951333992E-09 -180             7.10363975170252E-10 -5.87722149911022E-15 3.74634430261951E-13 180              
                5.13180058872124E-10 180              1.12163989718448E-09 -1.75405352850923E-14 2.70613198601235E-09 -5.69510364200202E-15 6.27712967893959E-08 -5.84511956574076E-15 
                0.000658840997473931 -179.999999999992 3.93396662865963E-08 -5.58753935195221E-15 1.54236737189841E-08 -1.59290705446672E-14 1.14280134156692E-09 -5.742079470117E-15 
                4.18144363123782E-11 -2.27325850552101E-13 1.0419083597765E-11 -5.55120107117134E-15 1.28636049297062E-10 -6.33287387669499E-15 
                5.97382416393706E-07 1.35631742851877E-19 4.50864868360297E-07 7.63028494586996E-20 5.80737923446899E-09 4.92140926334667E-20 2.47845328615402E-06 4.91120221358987E-20 
                4.75558286294418E-08 -180             5.80487486467841E-07 3.49684936744634E-14 9.53450435105662E-08 180              3.27899493872129E-12 -180             
                4.97121297473784E-08 1.00922638206811E-19 5.36426316029047E-08 180              5.83675659213809E-07 -180             2.2321690174974E-06 5.92774468510519E-20 
                3.93396662865962E-08 6.50193446023154E-18 0.000532445782218893 -180             3.04731372530674E-06 180              6.7870111029567E-08 -180             
                1.09446303790211E-07 180              3.18438392852095E-10 -180             9.27300495370322E-10 180              
                1.06343163131145E-06 -1.00124885195697E-14 6.17035754214604E-07 -1.0021132376856E-14 6.38315850780111E-09 -1.02174004689929E-14 4.73742754562298E-06 -1.07688085323546E-14 
                3.02027110791371E-08 180              1.97436066148847E-06 2.68753558613176E-14 3.96411704210034E-08 -9.95745139214426E-15 2.1294254420941E-10 180              
                9.10394649156711E-08 -1.02569605920054E-14 3.00799355525968E-08 180              1.57355271370336E-06 180              3.42536909584421E-06 -1.07594493253152E-14 
                1.54236737189841E-08 2.23331808179419E-15 3.04731372530674E-06 180              0.000392060375505432 -179.999999999973 6.77863219738745E-08 180              
                7.0902829830648E-08 180              1.94149043682994E-10 180              8.7591940746151E-09 -1.01663662467954E-14 
                1.03576242877116E-07 -4.93899182839813E-21 1.98594062558725E-07 4.17139523489942E-22 2.87635283773994E-09 1.15499954521292E-21 8.76488823279045E-08 180              
                9.7938742541419E-09 -5.07781010866819E-21 1.7479270754868E-08 -180             4.37491037436834E-09 -180             6.0229917681882E-12 1.90715376284198E-14 
                8.22369201064551E-09 1.55950666981597E-21 4.02093193794505E-08 -6.33397640628634E-15 2.25454212727866E-08 -3.55813212497146E-20 9.50902015434244E-08 180              
                1.14280134156692E-09 7.79263713176209E-16 6.7870111029567E-08 -180             6.77863219738747E-08 180              0.000904127833358248 -180             
                1.24399912379249E-08 180              4.80099052125971E-11 -4.57748871381601E-21 3.76935624624634E-08 180              
                4.17025166101441E-08 -5.35664274803197E-15 4.27127476230354E-08 -5.6247507098822E-15 6.69930365270647E-10 -5.2468322100955E-15 2.38773998358609E-07 180              
                5.51335199265598E-09 180              1.06355427884997E-08 1.67243433755153E-14 4.52593806859555E-09 180              1.88229878368407E-12 -2.63589664400461E-14 
                3.4554734572954E-09 -5.96228579496416E-15 1.61100885209195E-08 180              1.42017549017922E-08 180              1.0746078280837E-06 180              
                4.18144363123784E-11 1.35743296288121E-13 1.09446303790211E-07 180              7.09028298306481E-08 180              1.24399912379248E-08 180              
                0.00234849870102072 -179.999999999997 1.97719674707346E-11 180              1.37811692315856E-09 180              
                5.49879336870382E-11 1.9105626616645E-19 3.88430279570572E-12 9.82442190314449E-19 5.02516558951103E-13 180              3.41713737342225E-09 180              
                6.37654359068697E-11 180              1.23844411930967E-10 2.94284883957714E-14 8.52312910217537E-12 180              5.21937881145615E-15 -180             
                3.08641459626905E-12 1.75281548766202E-19 8.97645244777049E-12 -1.11002341041928E-14 7.63330393069131E-11 -6.79138836602501E-20 4.0959904125331E-11 180              
                1.0419083597765E-11 -2.95393980606094E-15 3.18438392852095E-10 -180             1.94149043682994E-10 180              4.80099052125971E-11 -5.14113323122857E-21 
                1.97719674707346E-11 180              0.00144840704553251 180              7.40998245554794E-12 -180             
                6.97992778764205E-08 -180             1.16639949969995E-07 -180             1.2381149820804E-09 -2.98329405720955E-22 4.02811559794066E-08 1.56487982282779E-20 
                7.67614946312396E-10 -180             8.14706135507712E-09 -180             7.59279694867398E-10 -2.24200943095159E-20 4.88654388696896E-13 9.52750342581556E-15 
                5.06344192119688E-09 -180             3.30736426956127E-08 -7.58414677547815E-15 4.30310035676855E-08 180              6.54251507650558E-08 -180             
                1.28636049297062E-10 7.54631468494924E-15 9.27300495370327E-10 -180             8.75919407461507E-09 -3.1246741947042E-15 3.76935624624634E-08 -180             
                1.37811692315856E-09 180              7.40998245554795E-12 -180             0.000509620220250695 -180             
! Gamma         !               59.9338044008045 0                76.2416901472846 0                59.9340234529371 0                103.00715964322  0                
!               76.2411069697726 0                76.2412590623642 0                76.2412537747606 0                103.007321137332 0                
!               103.007709377602 0                76.241332164886  0                76.241244638476  0                103.007127087114 0                
!               59.9337779134316 0                76.2416450840784 0                59.9342869777306 0                103.007801430024 0                
!               76.2416878846294 0                103.00740762739  0                76.2411832860774 0                
! Port Impedance0                29.2420414318358 0                57.3675211498517 0                58.4290766789585 0                28.3550007883739 
!               0                57.4821400141196 0                28.7417756673993 0                57.4652255641797 0                56.6877508926049 
!               0                56.676643855011  0                57.4720234699911 0                28.7386496661562 0                28.3544827253479 
!               0                58.4917823662443 0                57.3816443125329 0                29.2080279406293 0                56.6797366406704 
!               0                57.3476685706399 0                56.6803733238733 0                28.7389459756062 

0.95                           0.000356728415480734 -179.99999999998 2.48921615072817E-06 180              1.35059295920076E-08 180              7.44573953521586E-07 180              
                3.88283479987169E-08 180              2.10435234576091E-06 -8.28434974834788E-15 7.62136835896083E-08 -7.9058185104945E-15 2.83947910994919E-10 180              
                2.62842503526924E-07 180              4.85074674751471E-08 180              1.69570910195973E-06 180              5.82183858279179E-07 180              
                7.82004267309606E-09 180              6.6114850062249E-07 1.69586792026123E-14 1.17312213160424E-06 9.28145439635498E-15 1.12115432803609E-07 -7.84803175179816E-15 
                4.70915999346076E-08 -1.31637584065676E-14 6.21696071658406E-11 -1.98261375098165E-14 7.67909639909776E-08 180              
                2.48921615072816E-06 180              0.000520830688729768 -179.999999999991 2.51772545712101E-08 180              4.44214981581482E-08 -180             
                1.1340909402109E-07 180              6.09557342370031E-07 -2.99414498347946E-15 4.19812977429131E-08 -2.93962297948633E-15 1.05740261784495E-10 -180             
                1.70138870432752E-07 180              1.35556297931917E-07 180              5.65748617793017E-07 180              7.40175063584238E-08 180              
                7.10074521961175E-09 180              4.93169121195269E-07 3.04963750251355E-14 6.82256550495256E-07 1.3563382822108E-14 2.0582783389371E-07 -2.62242212588767E-15 
                4.68481895614507E-08 -2.32418688617039E-15 4.41747594428478E-12 -3.04270566393644E-13 1.23977742353665E-07 180              
                1.35059295920077E-08 180              2.51772545712101E-08 180              0.000406519675806072 -180             7.04892045622914E-09 -2.14568215995427E-15 
                4.19445371953411E-09 -180             3.08737632552316E-09 3.7313104126133E-19 4.26905322427312E-10 1.83881538823364E-20 8.08078316385326E-13 -180             
                8.60831396010221E-10 -180             2.74983874427009E-09 -180             3.36327853665809E-09 -180             4.03228184224523E-09 1.68592019665044E-19 
                1.13406359590473E-10 180              6.62453297435237E-09 2.85688030488856E-14 7.44268506192711E-09 1.71983884216504E-14 2.92772473352557E-09 2.11429402830279E-20 
                7.57150939523451E-10 -3.6885652781907E-15 5.6818873630524E-13 -180             1.38590883159995E-09 -3.93353396722588E-20 
                7.44573953521585E-07 180              4.44214981581488E-08 180              7.04892045622916E-09 1.93110406527613E-15 2.59851653068299E-05 1.75826024073753E-10 
                2.78934241239258E-07 -180             2.56853409761335E-06 -180             1.42348429031619E-07 1.59209176210527E-15 7.64426787014081E-11 4.35184219156007E-14 
                5.79077401918126E-08 -180             3.71980324176486E-08 2.10956635828004E-15 3.28880739529503E-07 -180             3.50303242227908E-06 2.53202165573178E-15 
                9.72059782436317E-08 2.63000018887348E-15 2.58182967370127E-06 2.7937980595509E-14 5.07261070835319E-06 2.3560565876839E-14 9.49713801349251E-08 -180             
                2.56953481749716E-07 -180             3.59646430000325E-09 180              4.47509126763617E-08 2.63217198998178E-15 
                3.88283479987169E-08 180              1.13409094021089E-07 180              4.19445371953411E-09 -180             2.78934241239258E-07 180              
                0.00151457655109699 -180             4.63510150690045E-08 -1.21159736910608E-19 1.3804304492344E-09 180              3.95578540275329E-12 -180             
                1.89333992939138E-09 -180             6.13083052293721E-09 5.91127227811573E-21 2.93954430452103E-08 -2.54570517331511E-20 3.08813739588265E-08 -9.41355497951236E-20 
                1.27178877836973E-09 2.05840726859174E-20 5.23888829841579E-08 -180             3.4043598505381E-08 -180             1.06625238057461E-08 4.0859624783343E-20 
                6.0899144892461E-09 -180             6.73708989048134E-11 -180             8.64133619268471E-10 -180             
                2.10435234576092E-06 -6.0541305257438E-15 6.09557342370031E-07 -1.65214722287643E-14 3.08737632552315E-09 2.94746859033595E-19 2.56853409761336E-06 -180             
                4.63510150690045E-08 -2.04868247360785E-20 0.000216729268939009 180              5.67317160224377E-08 -2.07476020334282E-20 3.76430804647258E-10 180              
                8.20809484356824E-08 1.3518336541913E-19 3.09231096194236E-08 -180             3.88386157595602E-07 -180             2.74264321008564E-07 7.83258984451272E-19 
                3.93156325980588E-09 180              6.29518520697331E-07 2.97974041532897E-14 2.1345238512438E-06 2.20106324922888E-14 1.9346723271431E-08 -180             
                1.19863073461802E-08 -1.47762537032005E-17 1.33615022038676E-10 -1.28966286484455E-14 9.14368773502455E-09 180              
                7.62136835896084E-08 -1.54920803483562E-14 4.19812977429132E-08 -5.08681845062906E-15 4.26905322427312E-10 2.11819085266254E-20 1.4234842903162E-07 6.10516760135471E-15 
                1.38043044923441E-09 180              5.67317160224377E-08 -5.42906272226292E-20 0.00133146021353436 180              2.42247643057163E-11 -180             
                9.15596882292076E-09 2.83833537213408E-20 2.05444665889819E-09 180              3.2292148273097E-07 180              2.7122125147926E-07 -3.48868432576896E-21 
                8.01401139530687E-10 -7.80556522884738E-20 1.00033317816113E-07 -180             5.49717210160678E-08 2.45967417205823E-14 4.84331524041224E-09 -180             
                4.98534935909824E-09 -180             9.48961848633984E-12 180              8.59572464878057E-10 1.83523361888759E-19 
                2.83947910994919E-10 180              1.05740261784494E-10 180              8.08078316385326E-13 -180             7.64426787014082E-11 -2.05680464406097E-14 
                3.95578540275331E-12 -180             3.76430804647258E-10 -180             2.42247643057164E-11 -180             0.00120219614220141 179.999999999997 
                1.50184574479384E-11 -180             5.22054285415716E-12 2.80089464372898E-15 9.2484812010799E-11 2.29529541873796E-15 1.54563999597745E-10 -180             
                4.26957483093353E-13 -180             3.9832694316941E-12 -180             2.30268806133236E-10 -180             6.69545750678498E-12 2.38563321285642E-15 
                2.10966585210968E-12 2.46449407780956E-15 5.36074783515555E-15 -180             5.2738125894031E-13 2.25686639033351E-15 
                2.62842503526924E-07 180              1.70138870432752E-07 180              8.60831396010221E-10 -180             5.79077401918129E-08 -180             
                1.89333992939138E-09 -180             8.20809484356823E-08 1.38444022007657E-19 9.15596882292077E-09 2.59259840847474E-20 1.50184574479384E-11 -180             
                0.00579310977703318 -180             2.26440976500751E-09 -180             2.45135699310788E-07 -180             7.57399131688543E-08 180              
                5.88507405122152E-10 180              5.38306292366761E-08 1.79482698064201E-14 9.7950534685513E-08 1.80211818733643E-14 8.83537400048397E-09 1.85070050620366E-20 
                3.83480239943202E-09 -5.40076421229817E-16 3.50234205749793E-12 -2.97306974515436E-15 5.50583974535211E-09 -180             
                4.85074674751473E-08 180              1.35556297931917E-07 180              2.74983874427009E-09 -180             3.71980324176485E-08 -3.07346681366807E-14 
                6.13083052293723E-09 4.87366172329901E-20 3.09231096194237E-08 180              2.05444665889819E-09 180              5.22054285415716E-12 8.39112803252058E-15 
                2.2644097650075E-09 -180             0.00098218780480086 -180             5.66504984403718E-08 180              2.4784562812545E-07 -180             
                1.27717300955665E-09 -1.75887881895411E-19 5.89263893761207E-08 -180             3.382134335863E-08 -180             4.26647166338774E-08 1.50631724379681E-20 
                1.74392737888295E-08 180              9.45304971260397E-12 7.38056321006541E-15 3.53286716114024E-08 -7.89669845272273E-21 
                1.69570910195973E-06 180              5.65748617793017E-07 180              3.36327853665809E-09 -180             3.28880739529503E-07 -180             
                2.93954430452104E-08 4.23286997760788E-20 3.88386157595601E-07 -180             3.22921482730971E-07 180              9.24848120107986E-11 2.13815583316821E-14 
                2.45135699310788E-07 -180             5.66504984403718E-08 180              0.00040283188015211 180              2.26048054836316E-06 -8.90869493784618E-20 
                3.1140345311927E-09 -6.51301173527818E-19 6.32303827588937E-07 -180             1.70994864445615E-06 -180             2.48372130125841E-08 3.48683733119663E-19 
                1.5779375175238E-08 -180             8.39342702306456E-11 2.66823239399914E-15 4.6842130833392E-08 -180             
                5.82183858279178E-07 180              7.40175063584236E-08 -180             4.03228184224524E-09 3.11681045094892E-19 3.50303242227908E-06 3.03699099043247E-15 
                3.08813739588266E-08 -2.56389898928869E-19 2.74264321008564E-07 9.08640708601915E-19 2.71221251479261E-07 -2.01556195586381E-20 1.54563999597745E-10 -180             
                7.57399131688544E-08 180              2.4784562812545E-07 -180             2.26048054836316E-06 -9.04174584895749E-20 0.00146607072499261 180              
                6.86860221269223E-08 8.37332948211902E-20 2.32618297748001E-06 3.77041271893166E-14 3.67548761132014E-06 2.21121047077761E-14 1.02193136070525E-07 -180             
                1.1317893992941E-06 180              4.89441046391877E-11 180              7.02685042572024E-08 180              
                7.82004267309606E-09 180              7.10074521961172E-09 180              1.13406359590472E-10 180              9.72059782436317E-08 3.96699964879185E-16 
                1.27178877836973E-09 -3.27677020451187E-20 3.9315632598059E-09 180              8.01401139530687E-10 -1.74091560828917E-19 4.2695748309335E-13 180              
                5.88507405122151E-10 180              1.27717300955665E-09 -9.58230356703496E-20 3.11403453119271E-09 -5.5706790512278E-19 6.86860221269223E-08 5.91316203031832E-20 
                0.000653068805899215 180              4.21209752633175E-08 2.75693272423935E-14 1.72510605858473E-08 2.68865191690883E-14 1.27100372381692E-09 -7.30142699459389E-20 
                6.49539515432035E-11 180              1.14340215461884E-11 -9.85473739420174E-15 1.49151772357515E-10 -1.59509462372441E-19 
                6.61148500622493E-07 9.51365258530996E-15 4.93169121195269E-07 1.71953599148133E-14 6.62453297435237E-09 2.0681046173762E-14 2.58182967370127E-06 2.83288015859643E-14 
                5.23888829841579E-08 -180             6.29518520697332E-07 2.05457684746596E-14 1.00033317816113E-07 -180             3.9832694316941E-12 -180             
                5.38306292366761E-08 2.08453689416619E-14 5.89263893761207E-08 -180             6.3230382758894E-07 -180             2.32618297748002E-06 1.98113294530843E-14 
                4.21209752633176E-08 1.9672076649645E-14 0.000529364414967426 179.99999999997  3.17884006710231E-06 -180             7.34709186744801E-08 -180             
                1.14971947026602E-07 -180             3.41560708188716E-10 -180             1.02554344998477E-09 -180             
                1.17312213160423E-06 4.81983187985605E-15 6.82256550495256E-07 1.15771193039974E-14 7.44268506192707E-09 1.95999253257817E-14 5.0726107083532E-06 2.56924439923851E-14 