! Touchstone file from project mwavepy standards
! Exported from HFSS 12.1.0
! Variables:
!  a = 10*10mil
!  b = a/2
!  mil = 10*10mil
!Data is not renormalized
# GHZ S MA
! Modal data exported
! Port[1] = 1:1
! Port[2] = 2:1
75               0.000106234985931872 49.9684141603483 0.999999994356695 77.8040593692471 0.999999994356691 77.8040593692471 0.000106234986257783 -74.360293159859 
! Gamma  !      -0               970.06127426939  -0               970.06130525747  
! Port Impedance  376.164319824124 0                376.412780778858 0                

75.175           0.000110192174484701 51.0014601983436 1.00000344165676 76.0711137307973 1.00000344165675 76.0711137307974 0.000110038944349596 -75.3562760059016 
! Gamma  !      0                975.993245241084 0                975.993276040821 
! Port Impedance  374.750361853072 0                374.997886322285 0                

75.35            0.000114566168118389 52.3350465998445 1.00000571257129 74.3449350483889 1.00000571257128 74.344935048389  0.00011453930666362 -76.5336271996686 
! Gamma  !      0                981.903079811965 0                981.903110426327 
! Port Impedance  373.361905795736 0                373.608510697761 0                

75.525           0.000119404431194685 54.0513438235205 1.00000702554786 72.6254001260253 1.00000702554785 72.6254001260254 0.000119964382565634 -77.9590664382941 
! Gamma  !      0                987.791175300303 0                987.791205732176 
! Port Impedance  371.998250921775 0                372.243952709241 0                

75.7             0.000124740739414303 56.2600267946262 1.00000757319742 70.9123882276878 1.00000757319741 70.9123882276879 0.000126649116648634 -79.7357377081929 
! Gamma  !      0                993.657918162491 0                993.657948414689 
! Port Impedance  370.658722650778 0                370.903537328027 0                

75.875           0.000130568796921811 59.1080624493161 1.00000752433612 69.2057810859247 1.0000075243361  69.2057810859249 0.000135098890271025 -82.0305865490572 
! Gamma  !      0                999.503684396315 0                999.503714471577 
! Port Impedance  369.342671318745 0                369.586614458416 0                

76.05            0.000136787137519908 62.7912877071324 1.00000702592184 67.5054629041106 1.00000702592182 67.5054629041107 0.000146094011683227 -85.1288779265678 
! Gamma  !      0                1005.32883992529 0                1005.32886982629 
! Port Impedance  368.049471014755 0                368.292557773596 0                

76.225           0.000143090471169047 67.5641296553527 1.00000620488781 65.8113203529096 1.00000620488779 65.8113203529097 0.000160838217699299 -89.5495137010485 
! Gamma  !      0                1011.13374096515 0                1011.13377069449 
! Port Impedance  366.778518483154 0                367.020763617106 0                

76.4             0.000148775920699069 73.7355396734349 1.0000051698759  64.1232425614489 1.00000516987588 64.1232425614491 0.000181008134216943 -96.299779718142 
! Gamma  !      0                1016.91873437348 0                1016.9187639337  
! Port Impedance  365.529232086964 0                365.770649965542 0                

76.575           0.00015246855902734 81.6219256807742 1.00000401287242 62.4411211036784 1.0000040128724  62.4411211036786 0.00020754759057932 -107.405575911014 
! Gamma  !      0                1022.68415798343 0                1022.684187377   
! Port Impedance  364.301050828506 0                364.541655448543 0                

76.75            0.000151954800103176 91.4087479411087 1.00000281074935 60.7648499803613 1.00000281074934 60.7648499803614 0.000232148743394689 -126.372120074377 
! Gamma  !      0                1028.43034092238 0                1028.43037015172 
! Port Impedance  363.093433423568 0                363.333238422325 0                

76.925           0.000144693410899304 102.90648293456  1.00000162671394 59.0943255971145 1.00000162671392 59.0943255971146 0.000218039597963662 -154.171445201668 
! Gamma  !      0                1034.1576039164  0                1034.15763298386 
! Port Impedance  361.905857425676 0                362.144876093382 0                

77.1             0.000129490614728729 115.368972866951 1.00000051166972 57.4294467388931 1.00000051166971 57.4294467388932 0.000152995700696288 -179.809447294112 
! Gamma  !      0                1039.86625958121 0                1039.8662884891  
! Port Impedance  360.737818397318 0                360.976063689153 0                

77.275           0.000108089531821348 127.715518955794 0.999999505492225 55.7701145412833 0.999999505492214 55.7701145412833 9.10030019931637E-005 165.840313257558 
! Gamma  !      0                1045.55661270046 0                1045.55664145101 
! Port Impedance  359.588829125172 0                359.826313672722 0                

77.45            8.43127911339153E-005 139.146509567822 0.999998638222246 54.11623245895   0.999998638222236 54.11623245895   5.03036348032192E-005 162.140415964756 
! Gamma  !      0                1051.22896049187 0                1051.22898908729 
! Port Impedance  358.458418876598 0                358.695154998821 0                

77.625           6.15741570892609E-005 149.630917146262 0.999997931180075 52.4677062315602 0.999997931180066 52.4677062315602 2.54554945795882E-005 171.693882159028 
! Gamma  !      0                1056.88359286202 0                1056.88362130444 
! Port Impedance  357.346132694875 0                357.582132408597 0                

77.8             4.16485228852114E-005 160.165860581887 0.999997398003661 50.8244438474798 0.999997398003653 50.8244438474798 1.38752453744227E-005 -149.13792570486 
! Gamma  !      0                1062.52079265017 0                1062.5208209417  
! Port Impedance  356.251530730812 0                356.486805760772 0                

77.975           2.51275593261168E-005 173.863893666465 0.999997045613891 49.1863555055261 0.999997045613885 49.186355505526  1.6531745966E-005 -102.885394744314 
! Gamma  !      0                1068.14083586197 0                1068.14086400464 
! Port Impedance  355.174187608538 0                355.408749397019 0                

78.15            1.28712129283698E-005 -157.276688572507 0.999996875110053 47.5533535750355 0.999996875110048 47.5533535750353 2.3575372438044E-005 -85.973202661946 
! Gamma  !      0                1073.74399189323 0                1073.74401988904 
! Port Impedance  354.113691823437 0                354.347551539485 0                

78.325           1.02363613535288E-005 -91.2195933810041 0.99999688259853 45.9253525544872 0.999996882598526 45.925352554487  3.01227405511784E-005 -79.9726331557477 
! Gamma  !      0                1079.33052374453 0                1079.33055159543 
! Port Impedance  353.069645170306 0                353.30281371858  0                

78.5             1.72608392809415E-005 -54.5115224296928 0.999997059957733 44.3022690289113 0.99999705995773 44.3022690289111 3.56868977445782E-005 -77.5344255875902 
! Gamma  !      0                1084.90068822698 0                1084.9007159349  
! Port Impedance  352.041662199983 0                352.274150229236 0                

78.675           2.55506387488158E-005 -41.8694959517838 0.999997395542196 42.6840216262877 0.999997395542194 42.6840216262875 4.03985675334745E-005 -76.5580019148909 
! Gamma  !      0                1090.45473615968 0                1090.45476372646 
! Port Impedance  351.029369702775 0                351.261187613989 0                

78.85            3.33888302937025E-005 -36.0102935704779 0.999997874828747 41.0705309731306 0.999997874828746 41.0705309731304 4.44352635466228E-005 -76.2944605541104 
! Gamma  !      0                1095.99291255906 0                1095.99293998655 
! Port Impedance  350.032406217135 0                350.263564171338 0                

79.025           4.06513924694487E-005 -32.8384860815662 0.999998481007546 39.4617196494389 0.999998481007546 39.4617196494386 4.79452364248655E-005 -76.4265155151163 
! Gamma  !      0                1101.51545682084 0                1101.51548411082 
! Port Impedance  349.050421562165 0                349.280929487926 0                

79.2             4.74242331041748E-005 -31.0596693213273 0.999999195520773 37.8575121431775 0.999999195520774 37.8575121431772 5.10435081222427E-005 -76.8032835238686 
! Gamma  !      0                1107.02260289468 0                1107.0226300489  
! Port Impedance  348.083076392567 0                348.312943993202 0                

79.375           5.381872395653E-005 -30.1368052470199 0.999999998551629 36.2578348044422 0.999999998551631 36.2578348044419 5.38187239853794E-005 -77.3475216863504 
! Gamma  !      -0               1112.51457945193 -0               1112.51460647211 
! Port Impedance  347.130041774811 0                347.359278535301 0                

79.55            5.99385699173057E-005 -29.8033085098384 1.00000086946628 34.6626157994515 1.00000086946628 34.6626157994512 5.6340192720171E-005 -78.0181701752305 
! Gamma  !      0                1117.99161004699 0                1117.99163693478 
! Port Impedance  346.190998783303 0                346.419613976954 0                

79.725           6.5874569545308E-005 -29.9099274920045 1.00000178721128 33.0717850644926 1.00000178721128 33.0717850644923 5.86634701117676E-005 -78.7935238132708 
! Gamma  !      0                1123.45391327224 0                1123.45394002931 
! Port Impedance  345.265638115487 0                345.493640810318 0                

79.9             7.17056483972499E-005 -30.3659918432625 1.00000273066891 31.4852742599433 1.00000273066891 31.4852742599429 6.08345882995041E-005 -79.6630356018319 
! Gamma  !      0                1128.90170290726 0                1128.90172953521 
! Port Impedance  344.353659724805 0                344.581058789704 0                

80.075           7.75011725845185E-005 -31.1133599064271 1.00000367897291 29.9030167244765 1.00000367897291 29.9030167244762 6.28933075372938E-005 -80.6230681456023 
! Gamma  !      0                1134.33518806218 0                1134.33521456257 
! Port Impedance  343.454772470578 0                343.681576581221 0                

80.25            8.33232402332906E-005 -32.1135388394649 1.0000046117868  28.3249474295496 1.00000461178681 28.3249474295493 6.48757429528732E-005 -81.6745778519847 
! Gamma  !      0                1139.75457331573 0                1139.75459969011 
! Port Impedance  342.56869378387  0                342.794911428417 0                

80.425           8.92286267773165E-005 -33.3407626907088 1.00000550954716 26.7510029342674 1.00000550954716 26.751002934267  6.68166561104701E-005 -82.8217887917298 
! Gamma  !      0                1145.16005884815 0                1145.16008509804 
! Port Impedance  341.6951493485   0                341.920788833078 0                

80.6             9.52703366067629E-005 -34.7780250673986 1.00000635367389 25.1811213407028 1.00000635367389 25.1811213407024 6.87516575056046E-005 -84.0713744376073 
! Gamma  !      0                1150.55184056914 0                1150.55186669598 
! Port Impedance  340.833872796385 0                341.058942250373 0                

80.775           0.000101498782805379 -36.4146910055031 1.00000712674971 23.6152422497494 1.00000712674972 23.6152422497491 7.07195518172641E-005 -85.4318696783653 
! Gamma  !      0                1155.93011024105 0                1155.93013624639 
! Port Impedance  339.984605416475 0                340.209112797586 0                

80.95            0.000107962619328323 -38.245006463799 1.00000781267082 22.0533067175735 1.00000781267082 22.0533067175731 7.27650743305265E-005 -86.9131189368543 
! Gamma  !      0                1161.2950555977  0                1161.29508148289 
! Port Impedance  339.147095876548 0                339.37104897574  0                

81.125           0.000114709229538243 -40.2671437369495 1.00000839677061 20.4952572127256 1.00000839677061 20.4952572127252 7.49423167565563E-005 -88.5255830385386 
! Gamma  !      0                1166.6468604588  0                1166.64688622524 
! Port Impedance  338.321099957234 0                338.544506403426 0                

81.3             0.0001217848450038 -42.4825778969485 1.00000886591849 18.9410375739665 1.00000886591849 18.9410375739662 7.73192291556902E-005 -90.2792974285698 
! Gamma  !      0                1171.9857048403  0                1171.98573048937 
! Port Impedance  337.506380297595 0                337.729247562233 0                

81.475           0.000129234232440552 -44.8956694421463 1.00000920859543 17.3905929688544 1.00000920859543 17.3905929688541 7.99837202500037E-005 -92.1822014737224 
! Gamma  !      0                1177.31176506081 0                1177.31179059384 
! Port Impedance  336.702706151722 0                336.925041553166 0                

81.65            0.000137099845208136 -47.5133694393498 1.00000941494811 15.8438698531374 1.00000941494811 15.8438698531371 8.30520701397875E-005 -94.23744032589  
! Gamma  !      0                1182.62521384423 0                1182.62523926254 
! Port Impedance  335.909853155747 0                336.131663863515 0                

81.825           0.000145420289517855 -50.3449829885941 1.00000947682323 14.3008159309856 1.00000947682323 14.3008159309854 8.66806191769506E-005 -96.4390755276734 
! Gamma  !      0                1187.92622041882 0                1187.92624572371 
! Port Impedance  335.127603104778 0                335.348896143635 0                

82               0.000154227907526064 -53.401933137752 1.00000938778366 12.7613801160976 1.00000938778366 12.7613801160973 9.10819767200556E-005 -98.7654382097334 
! Gamma  !      0                1193.2149506128  0                1193.21497580553 
! Port Impedance  334.355743739248 0                334.576525993157 0                

82.175           0.000163545238236201 -56.6974646109247 1.00000914310797 11.2255124937064 1.00000914310797 11.2255124937061 9.65471830622246E-005 -101.169157222455 
! Gamma  !      0                1198.49156694664 0                1198.49159202845 
! Port Impedance  333.59406854022  0                333.814346756153 0                

82.35            0.000173380100638246 -60.2462174772238 1.00000873977468 9.69316428350847 1.00000873977468 9.69316428350826 0.000103474963743065 -103.562779833801 
! Gamma  !      0                1203.75622872218 0                1203.75625369429 
! Port Impedance  332.842376533201 0                333.062157324824 0                

82.525           0.000183719084909881 -64.063587889743 1.00000817643288 8.16428780353506 1.00000817643288 8.16428780353489 0.000112407252999758 -105.799030855956 
! Gamma  !      0                1209.00909210874 0                1209.00911697236 
! Port Impedance  332.100472100063 0                332.319761951289 0                

82.7             0.000194519390305248 -68.1647807765881 1.00000745336025 6.63883643498005 1.00000745336025 6.6388364349799  0.000124063070205624 -107.645417336353 
! Gamma  !      0                1214.25031022631 0                1214.2503349826  
! Port Impedance  331.368164798659 0                331.586970067092 0                

82.875           0.00020569928666478 -72.563456022926 1.00000657241012 5.11676458799576 1.00000657241012 5.11676458799564 0.000139340905068698 -108.754873608753 
! Gamma  !      0                1219.48003322593 0                1219.48005787606 
! Port Impedance  330.645269189793 0                330.863596110044 0                

83.05            0.000217128079486463 -77.2698887294896 1.00000553694845 3.59802766846527 1.00000553694845 3.59802766846519 0.000159198781620189 -108.640351438862 
! Gamma  !      0                1224.69840836741 0                1224.6984329125  
! Port Impedance  329.931604671166 0                330.149459358067 0                

83.225           0.000228617362449243 -82.2886244614153 1.00000435178216 2.08258204575613 1.00000435178216 2.08258204575607 0.000184180342893124 -106.681119239475 
! Gamma  !      0                1229.90558009449 0                1229.90560453566 
! Port Impedance  329.226995317986 0                329.444383769699 0                

83.4             0.000239916443763038 -87.6157318661236 1.00000302307976 0.570385021456267 1.00000302307976 0.570385021456246 0.000213179238273225 -102.240681270035 
! Gamma  !      0                1235.10169010749 0                1235.10171444583 
! Port Impedance  328.531269729921 0                328.748197830938 0                

83.575           0.000250715763004096 -93.2359456885942 1.00000155828545 -0.938605200906357 1.00000155828545 -0.938605200906341 0.000241475704174451 -95.0413852216889 
! Gamma  !      0                1240.28687743365 0                1240.28690167025 
! Port Impedance  327.844260884105 0                328.060734408157 0                

83.75            0.000260662160184307 -99.1202271415129 0.999999966027564 -2.44442954516522 0.999999966027561 -2.44442954516517 0.000260662160423964 -85.7686319194832 
! Gamma  !      -0               1245.46127849516 -0               1245.46130263106 
! Port Impedance  327.165805993912 0                327.381830606781 0                

83.925           0.000269388135076065 -105.224463618212 0.999998256022437 -3.94712809084237 0.999998256022434 -3.94712809084229 0.000264534731767873 -76.1730893045951 
! Gamma  !      0                1250.62502717497 0                1250.62505121122 
! Port Impedance  326.495746373231 0                326.711327635472 0                

84.1             0.000276553283981881 -111.490050533532 0.999996438974496 -5.44674010050896 0.999996438974492 -5.44674010050885 0.000255236684587683 -68.0080073962153 
! Gamma  !      0                1255.77825488059 0                1255.7782788182  
! Port Impedance  325.833927306004 0                326.049070675582 0                

84.275           0.000281890753051573 -117.846815714679 0.999994526473463 -6.94330404618809 0.999994526473459 -6.94330404618793 0.000239775777530701 -62.0010001120038 
! Gamma  !      0                1260.92109060575 0                1260.92111444573 
! Port Impedance  325.180197920768 0                325.394908755609 0                

84.45            0.000285247275012324 -124.21815073908 0.999992530889459 -8.43685763481249 0.999992530889453 -8.4368576348123 0.000223645449585582 -57.9855324010471 
! Gamma  !      0                1266.05366099024 0                1266.05368473358 
! Port Impedance  324.534411069994 0                324.748694630457 0                

84.625           0.000286605174876366 -130.527497243173 0.999990465266756 -9.9274378327481 0.99999046526675 -9.92743783274788 0.000209320639436683 -55.4809242581705 
! Gamma  !      0                1271.17609037778 0                1271.17611402543 
! Port Impedance  323.896423214    0                324.110284665274 0                

84.8             0.000286079850430684 -136.70484001638 0.999988343216886 -11.4150808893992 0.999988343216879 -11.415080889399 0.000197424511858686 -54.0286298446695 
! Gamma  !      0                1276.28850087211 0                1276.28852442505 
! Port Impedance  323.266094309235 0                323.479538723656 0                

84.975           0.000283894494322801 -142.691856698802 0.999986178811754 -12.8998223599104 0.999986178811747 -12.8998223599101 0.000187821356867674 -53.2832254792877 
! Gamma  !      0                1281.39101239145 0                1281.39103585059 
! Port Impedance  322.643287700744 0                322.856320060048 0                

85.15            0.000280340888389281 -148.444867304048 0.999983986477381 -14.3816971269815 0.999983986477374 -14.3816971269812 0.000180157266451509 -53.005667812877 
! Gamma  !      0                1286.48374272111 0                1286.48376608738 
! Port Impedance  322.027870018625 0                322.240495216126 0                

85.325           0.000275737634311812 -153.935442975646 0.999981780888838 -15.8607394218162 0.999981780888831 -15.8607394218159 0.000174067168716847 -53.035572642428 
! Gamma  !      0                1291.56680756465 0                1291.56683083897 
! Port Impedance  321.419711078318 0                321.631933921024 0                

85.5             0.000270395001521442 -159.149131426142 0.999979576866906 -17.3369828442188 0.999979576866898 -17.3369828442185 0.000169237782573602 -53.2662679956151 
! Gamma  !      0                1296.64032059347 0                1296.64034377672 
! Port Impedance  320.818683784538 0                321.0305089952   0                

85.675           0.000264590998260976 -164.083041560328 0.999977389276951 -18.8104603818636 0.999977389276943 -18.8104603818632 0.000165417375064069 -53.6267706398969 
! Gamma  !      0                1301.7043934948  0                1301.70441658785 
! Port Impedance  320.224664038721 0                320.436096257821 0                

85.85            0.000258558959582376 -168.743011049043 0.999975232930465 -20.2812044287545 0.999975232930456 -20.281204428754 0.000162408726863777 -54.069664770842 
! Gamma  !      0                1306.75913601838 0                1306.75915902211 
! Port Impedance  319.637530649811 0                319.848574437495 0                

86.025           0.000252484330264248 -173.140886609806 0.999973122489679 -21.7492468028981 0.99997312248967 -21.7492468028977 0.000160058546923758 -54.5631440747896 
! Gamma  !      0                1311.80465602172 0                1311.80467893698 
! Port Impedance  319.057165248262 0                319.267825086209 0                

86.2             0.000246507478138754 -177.292213080697 0.99997107237564 -23.2146187632103 0.999971072375631 -23.2146187632098 0.000158247645956752 -55.0858115931351 
! Gamma  !      0                1316.84105951401 0                1316.84108234162 
! Port Impedance  318.483452203108 0                318.693732496348 0                

86.375           0.000240729683196121 178.785563280613 0.999969096680075 -24.6773510256807 0.999969096680066 -24.6773510256803 0.00015688293841984 -55.6232683171531 
! Gamma  !      0                1321.86845069871 0                1321.8684734395  
! Port Impedance  317.916278541984 0                318.126183620663 0                

86.55            0.000235220228798493 175.074393173603 0.999967209081355 -26.1374737788167 0.999967209081345 -26.1374737788162 0.000155891259282234 -56.1658578158173 
! Gamma  !      0                1326.886932015   0                1326.88695466978 
! Port Impedance  317.355533873961 0                317.565067995055 0                

86.725           0.000230023324038893 171.556500027851 0.999965422764845 -27.5950166983895 0.999965422764836 -27.595016698389 0.000155214684253554 -56.7071612732363 
! Gamma  !      0                1331.89660417792 0                1331.89662674749 
! Port Impedance  316.801110315099 0                317.010277664075 0                

86.9             0.000225164211978327 168.214926905923 0.999963750347861 -29.0500089615083 0.999963750347852 -29.0500089615078 0.000154807013675106 -57.2429835823698 
! Gamma  !      0                1336.89756621744 0                1336.89758870258 
! Port Impedance  316.252902416581 0                316.461707109015 0                

87.075           0.00022065423072463 165.033843215591 0.999962203809465 -30.5024792600426 0.999962203809456 -30.502479260042 0.000154631131243168 -57.7706638963729 
! Gamma  !      0                1341.88991551635 0                1341.88993791784 
! Port Impedance  315.710807095344 0                315.919253178488 0                

87.25            0.000216494829981166 161.998685021686 0.999960794425262 -31.9524558134188 0.999960794425252 -31.9524558134183 0.000154657012734535 -58.2886027480202 
! Gamma  !      0                1346.87374784713 0                1346.87377016572 
! Port Impedance  315.174723567096 0                315.382815021407 0                

87.425           0.000212680659661157 159.096185733296 0.999959532707368 -33.3999663808151 0.999959532707359 -33.3999663808146 0.000154860216246729 -58.7959351858433 
! Gamma  !      0                1351.84915740773 0                1351.84917964418 
! Port Impedance  314.644553281626 0                314.852294022243 0                

87.6             0.000209201887352928 156.314338524867 0.999958428349673 -34.8450382727761 0.999958428349665 -34.8450382727755 0.000155220729772669 -59.2923033144824 
! Gamma  !      0                1356.81623685639 0                1356.81625901144 
! Port Impedance  314.120199860304 0                314.327593738495 0                

87.775           0.000206045901941364 153.64231936205  0.999957490178482 -36.2876983622729 0.999957490178474 -36.2876983622724 0.00015572208513477 -59.7776971232044 
! Gamma  !      0                1361.77507734545 0                1361.77509941983 
! Port Impedance  313.601569035712 0                313.808619840269 0                

87.95            0.000203198542956413 151.070390049512 0.999956726108635 -37.7279730952323 0.999956726108627 -37.7279730952317 0.000156350671646914 -60.2523426212609 
! Gamma  !      0                1366.72576855426 0                1366.72579054868 
! Port Impedance  313.088568593281 0                313.295280051886 0                

88.125           0.000200644971386075 148.589793883967 0.999956143105138 -39.1658885005569 0.99995614310513 -39.1658885005563 0.000157095200555019 -60.7166229959033 
! Gamma  !      0                1371.66839872113 0                1371.66842063629 
! Port Impedance  312.581108314896 0                312.787484095442 0                

88.3             0.00019837027396537 146.192651723761 0.999955747150342 -40.6014701996606 0.999955747150334 -40.6014701996601 0.000157946284119904 -61.1710229796934 
! Gamma  !      0                1376.60305467446 0                1376.60307651106 
! Port Impedance  312.079099924359 0                312.285143636241 0                

88.475           0.000196359872053383 143.871863048896 0.999955543216671 -42.0347434155434 0.999955543216664 -42.0347434155429 0.000158896102504958 -61.6160896278195 
! Gamma  !      0                1381.52982186302 0                1381.52984362175 
! Port Impedance  311.582457034661 0                311.788172230027 0                

88.65            0.000194599788976503 141.621014446783 0.999955535244892 -43.4657329814252 0.999955535244886 -43.4657329814247 0.000159938138405496 -62.0524047572753 
! Gamma  !      0                1386.44878438534 0                1386.44880606688 
! Port Impedance  311.091095096977 0                311.29648527195  0                

88.825           0.000193076816067912 139.434296585682 0.99995572612788 -44.894463348964 0.999955726127873 -44.8944633489635 0.000161066964317748 -62.480565708094 
! Gamma  !      0                1391.36002501842 0                1391.36004662342 
! Port Impedance  310.604931351331 0                310.809999947193 0                

89               0.000191778607109079 137.30642988526  0.999956117699835 -46.3209585960797 0.999956117699829 -46.3209585960793 0.000162278071000473 -62.9011720619453 
! Gamma  !      0                1396.26362524556 0                1396.26364677468 
! Port Impedance  310.123884778858 0                310.328635183204 0                

89.175           0.000190693722911046 135.232598588704 0.999956710730883 -47.7452424344034 0.999956710730877 -47.745242434403 0.000163567728392477 -63.3148166338865 
! Gamma  !      0                1401.15966528351 0                1401.1596867374  
! Port Impedance  309.647876055599 0                309.852311603466 0                

89.35            0.000189811641819108 133.208392663195 0.999957504926951 -49.1673382163764 0.999957504926946 -49.167338216376 0.000164932872272427 -63.7220795314354 
! Gamma  !      0                1406.04822410892 0                1406.04824548823 
! Port Impedance  309.176827507791 0                309.380951482747 0                

89.525           0.000189122747517654 131.229756823239 0.999958498934841 -50.5872689420171 0.999958498934836 -50.5872689420167 0.000166371011467758 -64.1235244137138 
! Gamma  !      0                1410.92937948405 0                1410.92940078939 
! Port Impedance  308.710663068568 0                308.914478703781 0                

89.7             0.000188618302274082 129.292945929692 0.999959690352357 -52.0050572653773 0.999959690352352 -52.005057265377 0.000167880151569693 -64.5196963245725 
! Gamma  !      0                1415.8032079818  0                1415.8032292138  
! Port Impedance  308.249308236041 0                308.452818715317 0                

89.875           0.00018829041139548 127.39448602976  0.999961075743367 -53.4207255007081 0.999961075743363 -53.4207255007078 0.000169458731987316 -64.9111206463539 
! Gamma  !      0                1420.66978501016 0                1420.66980616943 
! Port Impedance  307.792690032703 0                307.995898491494 0                

90.05            0.000188131982952539 125.53114034635  0.999962650657647 -54.8342956283532 0.999962650657644 -54.8342956283528 0.000171105573844937 -65.2983028453527 
! Gamma  !      0                1425.52918483593 0                1425.52920592307 