! Touchstone file from project tmp
! Exported from HFSS 15.0.0
!Data is not renormalized
# GHZ S MA
! Modal data exported
! Port[1] = p1:1
! Port[2] = p2:1
500              1.06061296136519E-005 -126.246688445833 0.704486252212028 -71.7673992232711 0.704486252211589 -71.76739922327  5.21922747892919E-006 163.799671315332 
! Gamma  !      13.7908782979596 6480.91108955822 13.7908043703109 6480.92178869163 
! Port Impedance  375.627832995351 0.857259478977753 375.630965843522 0.857855507931288 

500.625          1.05169449261699E-005 -125.669885133613 0.705028700776133 -102.581524604958 0.705028700775761 -102.581524604955 5.18473777136125E-006 101.727331539626 
! Gamma  !      13.7609335788191 6502.08495736588 13.7608599928951 6502.09562164168 
! Port Impedance  374.872018300213 0.851812968230847 374.875159541185 0.852406358264612 

501.25           1.04265686148226E-005 -125.09626767161 0.705565633279309 -133.33397397487 0.705565633278998 -133.333973974864 5.14939970495295E-006 39.7764244495213 
! Gamma  !      13.7312886157014 6523.21641704066 13.7312153673314 6523.22704675418 
! Port Impedance  374.12354055633  0.846448637348196 374.126690031072 0.847039404241965 

501.875          1.03349980118858E-005 -124.525792982415 0.706097141198339 -164.025342796683 0.706097141198085 -164.025342796674 5.11321140943138E-006 -22.0542247410863 
! Gamma  !      13.7019390518392 6544.30587935846 13.7018661369288 6544.31647480084 
! Port Impedance  373.382290706066 0.841164854465978 373.385448259235 0.84175301381011 

502.5            1.0242230717187E-005 -123.958417512588 0.706623314078698 165.343782229919 0.706623314078496 165.34378222993  5.07617121022071E-006 -83.7657724365469 
! Gamma  !      13.6728806179483 6565.35374900624 13.6728080324774 6565.36431046449 
! Port Impedance  372.648161903789 0.835960029376659 372.651327383628 0.836545596574846 

503.125          1.01482646017083E-005 -123.394097206875 0.707144239574638 134.772822993294 0.707144239574484 134.772822993306 5.03827763299454E-006 -145.359357020328 
! Gamma  !      13.6441091299845 6586.36042470519 13.6440368700054 6586.37095246231 
! Port Impedance  371.921049458896 0.830832612234625 371.924222717132 0.831415602506604 

503.75           1.00530978109914E-005 -122.832787480975 0.707660003488463 104.261209798385 0.707660003488353 104.261209798399 4.99952940803195E-006 153.163900792746 
! Gamma  !      13.6156204869706 6607.32629933073 13.6155485486066 6607.33679366574 
! Port Impedance  371.200850780608 0.825781092309119 371.20403167236  0.826361520693352 

504.375          9.95672876833833E-006 -122.274443192687 0.708170689808997 73.8083811996302 0.708170689808928 73.8083811996457 4.95992547436622E-006 91.802897612628  
! Gamma  !      13.5874106688913 6628.25176002941 13.5873390483348 6628.26222121748 
! Port Impedance  370.487465324484 0.820803996782504 370.490653708171 0.821381878138809 

505              9.85915617779823E-006 -121.719018611202 0.708676380749288 43.4137838381054 0.708676380749255 43.4137838381222 4.91946498371507E-006 30.5565470382949 
! Gamma  !      13.5594757346517 6649.13718833291 13.5594044281626 6649.14761664539 
! Port Impedance  369.780794540586 0.81589988959195 369.783990277833 0.816475238604104 

505.625          9.76037902693433E-006 -121.166467384323 0.709177156783537 13.0768722827655 0.709177156783535 13.0768722827836 4.87814730418157E-006 -30.5762206701757 
! Gamma  !      13.5318118200995 6669.98296026908 13.5317408240036 6669.9933559736  
! Port Impedance  369.080741823229 0.811067370312752 369.083944778784 0.811640201491049 

506.25           9.66039658936331E-006 -120.616742503346 0.709673096683298 -17.2028911243445 0.709673096683326 -17.2028911243254 4.83597202371509E-006 -91.5964589119433 
! Gamma  !      13.5044151361064 6690.78944647025 13.5043444467939 6690.7998098308  
! Port Impedance  368.387212462273 0.806305073081556 368.390422503924 0.80687540076533 

506.875          9.55920842706026E-006 -120.069796265311 0.71016427755295 -47.4260364190163 0.710164277553002 -47.4260364189963 4.79293895332181E-006 -152.505205058369 
! Gamma  !      13.4772819667086 6711.55701227881 13.4772115806325 6711.56734355577 
! Port Impedance  367.700113595894 0.801611665557857 367.703330594383 0.802179503917969 

507.5            9.45681439242299E-006 -119.525580232295 0.710650774864454 -77.5930861620881 0.710650774864528 -77.5930861620672 4.74904813001458E-006 146.696519241106 
! Gamma  !      13.4504086673024 6732.28601785018 13.4503385809772 6732.29631730043 
! Port Impedance  367.019354164771 0.796985847922206 367.02257799372  0.797551210963495 

508.125          9.35321463008954E-006 -118.984045187393 0.711132662491432 -107.704555583013 0.711132662491524 -107.704555582992 4.7042998194925E-006 86.0077077600368 
! Gamma  !      13.4237916628945 6752.97681825318 13.4237218728946 6752.98708613014 
! Port Impedance  366.344844867663 0.792426351909644 366.348075403496 0.792989253473335 

508.75           9.24840957850304E-006 -118.445141086951 0.711610012742552 -137.760952719911 0.711610012742659 -137.760952719889 4.65869451854043E-006 25.4273694027618 
! Gamma  !      13.3974274464038 6773.62976356805 13.3973579493623 6773.64000012176 
! Port Impedance  365.676498118303 0.787931939876928 365.67973524017  0.788492393643007 

509.375          9.14239997121913E-006 -117.908817008635 0.71208289639427 -167.762778556225 0.712082896394388 -167.762778556203 4.61223295713964E-006 -35.0454720813211 
! Gamma  !      13.3713125770144 6794.24519898192 13.3712433696215 6794.2554044591  
! Port Impedance  365.014228003578 0.783501403902198 365.017471593288 0.784059423391754 

510              9.03518683795074E-006 -117.375021094769 0.71255138272291 162.289472845931 0.712551382723038 162.289472845954 4.56491610028079E-006 -95.4117783771424 
! Gamma  !      13.3454436785761 6814.82346488209 13.3453747575782 6814.8336395262  
! Port Impedance  364.357950242942 0.779133564915794 364.36120018489  0.779689163493321 

510.625          8.92677150534625E-006 -116.843700490398 0.713015539536124 132.395314215662 0.713015539536257 132.395314215685 4.51674514947111E-006 -155.672496877124 
! Gamma  !      13.3198174380525 6835.36489694702 13.3197488002507 6835.37504099831 
! Port Impedance  363.707582149025 0.774827271860977 363.710838330126 0.775380462736641 

511.25           8.8171555974973E-006 -116.314801275402 0.71347543320372 102.554264946263 0.713475433203856 102.554264946286 4.46772154392814E-006 144.171439051586 
! Gamma  !      13.2944306040145 6855.86982623502 13.2943622462634 6855.87993993062 
! Port Impedance  363.063042589392 0.770581400883383 363.066304899016 0.771132197115252 

511.875          8.70634103617299E-006 -115.788268389913 0.713931128687899 72.7658509712483 0.713931128688035 72.7658509712718 4.41784696145295E-006 84.1191098058072 
! Gamma  !      13.2692799851765 6876.33857927103 13.269211904383  6876.34866284495 
! Port Impedance  362.424251949416 0.766394854548066 362.427520279326 0.766943269044311 

512.5            8.59433004077806E-006 -115.2640455522  0.714382689572887 43.0296046432899 0.714382689573021 43.0296046433134 4.36712331897632E-006 24.1696092906838 
! Gamma  !      13.2443624489762 6896.7714781311  13.2442946420983 6896.78153181436 
! Port Impedance  361.791132096225 0.762266561083063 361.794406340512 0.76281260660412 

513.125          8.48112512803285E-006 -114.742075168056 0.714830178093996 13.3450646160356 0.714830178094126 13.345064616059  4.31555277277188E-006 -35.6779553303065 
! Gamma  !      13.2196749201938 6917.16884052505 13.2196073842396 6917.17886454569 
! Port Impedance  361.163606343686 0.758195473648448 361.166886398714 0.758739162809146 

513.75           8.36672911137429E-006 -114.222298230607 0.715273655166111 -16.2882242713122 0.715273655166234 -16.2882242712889 4.26313771833115E-006 -95.4244638798829 
! Gamma  !      13.195214379612  6937.53097987711 13.1951471116384 6937.54097446024 
! Port Impedance  360.541599418393 0.754180569629885 360.544885182738 0.754721914901539 

514.375          8.25114510007679E-006 -113.704654209277 0.715713180411625 -45.87071110673  0.715713180411739 -45.8707111067069 4.20988078989588E-006 -155.070783406117 
! Gamma  !      13.1709778627125 6957.85820540462 13.1709108598246 6957.86817077249 
! Port Impedance  359.925037426626 0.750220849955733 359.928328801021 0.750759863668213 

515              8.13437649809354E-006 -113.189080926513 0.71614881218783 -75.402839015486 0.716148812187932 -75.4028390154631 4.15578485964363E-006 145.382231583721 
! Gamma  !      13.1469624584113 6978.15082219501 13.1468957177606 6978.16075856705 
! Port Impedance  359.31384782224  0.746315338436816 359.317144709523 0.746852032780568 

515.625          8.01642700261923E-006 -112.675514420622 0.716580607613771 -104.885045267692 0.716580607613859 -104.885045267669 4.10085303652387E-006 85.9337388945708 
! Gamma  !      13.1231653078275 6998.40913128086 13.1230988266116 6998.41903887374 
! Port Impedance  358.70795937547  0.742463081127972 358.711261680528 0.74299746815602 

516.25           7.89730060237572E-006 -112.16388879285 0.717008622596583 -134.317761383435 0.717008622596655 -134.317761383413 4.04508866474198E-006 26.5829084200582 
! Gamma  !      13.0995836030879 7018.63342971335 13.0995173785492 7018.64330874104 
! Port Impedance  358.107302142603 0.738663145710579 358.110609772323 0.739195237340492 

516.875          7.77700157562371E-006 -111.65413603655 0.717432911857313 -163.701413235438 0.717432911857368 -163.701413235416 3.98849532188967E-006 -32.6710780757669 
! Gamma  !      13.0762145861648 7038.82401063395 13.0761486155895 7038.83386130772 
! Port Impedance  357.5118074365   0.73491462089525 357.51512029972  0.73544442891107 

517.5            7.65553448790373E-006 -111.146185845948 0.717853528956245 166.963578850543 0.717853528956281 166.963578850565 3.93107681672117E-006 -91.8290271717424 
! Gamma  !      13.0530555477452 7058.98116334448 13.0529898284625 7058.990985873   
! Port Impedance  356.92140779794  0.731216615843944 356.924725805397 0.731744151898092 

518.125          7.53290418951133E-006 -110.639965401621 0.718270526317727 137.676799997666 0.718270526317742 137.676799997687 3.87283718657521E-006 -150.891733997676 
! Gamma  !      13.0301038261318 7079.10517337558 13.0300383555129 7079.11496796494 
! Port Impedance  356.336036967747 0.727568259610774 356.339360032035 0.728093535225921 

518.75           7.4091158127121E-006 -110.135399129353 0.718683955254526 108.437840682074 0.718683955254517 108.437840682095 3.81378069444368E-006 150.14001756253  
! Gamma  !      13.0073568061741 7099.19632255365 13.0072915816315 7099.20608940739 
! Port Impedance  355.755629859695 0.723968700600806 355.758957895217 0.724491727171716 

519.375          7.2841747687036E-006 -109.632408428453 0.719093865991704 79.2462966391937 0.719093865991673 79.2462966392137 3.7539118256889E-006 91.2654546730374 
! Gamma  !      12.9848119182287 7119.25488906624 12.984746937215  7119.26462838545 
! Port Impedance  355.180122534151 0.720417106046197 355.183455457073 0.720937894841538 

520              7.15808674433222E-006 -109.130911365006 0.71950030769004 50.1017687720727 0.719500307689982 50.1017687720921 3.69323528441199E-006 32.4838153533563 
! Gamma  !      12.9624666371471 7139.28114752603 12.9624018971546 7139.29085950932 
! Port Impedance  354.609452172426 0.716912661499023 354.612789900641 0.717431223663153 

520.625          7.03085769857496E-006 -108.630822324715 0.719903328468986 21.003863061759  0.719903328468902 21.0038630617779 3.6317559894759E-006 -26.2056517090454 
! Gamma  !      12.940318481292  7159.27536903334 12.9402539798515 7159.28505387693 
! Port Impedance  354.043557051841 0.713454570340193 354.04689950492  0.713970916894909 

521.25           6.90249385879716E-006 -108.132051619085 0.720302975429198 -8.04780952033193 0.720302975429085 -8.04780952031364 3.56947907018758E-006 -84.8036873406637 
! Gamma  !      12.9183650115793 7179.23782123725 12.9183007462595 7179.24747913501 
! Port Impedance  353.482376521447 0.710042053303856 353.4857236206   0.710556195150126 

521.875          6.7730017167994E-006 -107.634505037544 0.720699294674611 -37.053633098135 0.720699294674469 -37.0536330981173 3.50640986164434E-006 -143.311022058276 
! Gamma  !      12.8966038305459 7199.1687683954  12.8965397989525 7199.17839953885 
! Port Impedance  352.925850978404 0.706674348016749 352.929202646447 0.707186295936405 

522.5            6.64238802466864E-006 -107.138083336782 0.721092331334102 -66.0139869747777 0.72109233133393 -66.0139869747607 3.44255389975074E-006 158.271623760605 
! Gamma  !      12.8750325814423 7219.06847143246 12.8749687812174 7219.07807601086 
! Port Impedance  352.373921844998 0.70335070855194 352.377278006305 0.703860473209351 

523.125          6.51065979045102E-006 -106.642681656924 0.721482129582734 -94.9292457146033 0.72148212958253 -94.9292457145869 3.37791691591283E-006 99.943539713412  
! Gamma  !      12.8536489473492 7238.93718799732 12.8535853761705 7238.94676619767 
! Port Impedance  351.826531546256 0.700070404996442 351.829892126729 0.700577996940156 

523.75           6.37782427366647E-006 -106.148188852154 0.721868732662575 -123.799779223411 0.721868732662339 -123.799779223396 3.31250483141759E-006 41.70402521473   
! Gamma  !      12.8324506503178 7258.775172519   12.8323873058979 7258.78472452611 
! Port Impedance  351.28362348816  0.696832723032227 351.286988415191 0.69733815269659 

524.375          6.24388898068863E-006 -105.65448672099 0.722252182903137 -152.625952826992 0.722252182902867 -152.625952826977 3.24632375150632E-006 -16.4476106545852 
! Gamma  !      12.8114354505319 7278.58267626146 12.8113723306175 7278.59220225795 
! Port Impedance  350.74514203644  0.693636963530131 350.748511238875 0.694140241236876 

525              6.10886166001672E-006 -105.161449118397 0.722632521741397 178.591872652059 0.722632521741093 178.591872652073 3.17937995915137E-006 -74.5120492906988 
! Gamma  !      12.7906011454927 7298.35994737707 12.790538247864  7298.36944754342 
! Port Impedance  350.211032495912 0.690482442156219 350.214405904018 0.690983578116031 

525.625          5.97275029747126E-006 -104.668940928252 0.723009789741451 149.853340819125 0.723009789741112 149.853340819138 3.11167990854653E-006 -132.48996270196 
! Gamma  !      12.7699455692244 7318.10723095904 12.7698828916944 7318.11670547365 
! Port Impedance  349.681241090362 0.687368488990161 349.684618635792 0.687867493304218 

526.25           5.83556311135045E-006 -104.176816870074 0.723384026613774 121.158099633977 0.723384026613399 121.158099633991 3.04323021832219E-006 169.617986365033 
! Gamma  !      12.7494665914999 7337.82476909273 12.749404131914  7337.83421813192 
! Port Impedance  349.155714942953 0.684294448155193 349.159096558716 0.684791330816679 

526.875          5.69730854759062E-006 -103.684920108263 0.723755271234111 92.5058013387244 0.723755271233701 92.5058013387369 2.97403766449702E-006 111.811144309442 
! Gamma  !      12.7291621170877 7357.51280090579 12.7290998733225 7357.52222464386 
! Port Impedance  348.634402057133 0.681259677459274 348.637787677563 0.681754448354869 

527.5            5.55799527498241E-006 -103.193080624933 0.724123561662013 63.8961023872787 0.724123561661566 63.8961023872905 2.90410917317891E-006 54.0888665716007 
! Gamma  !      12.7090300850167 7377.17156261734 12.70896805498   7377.18096122657 
! Port Impedance  348.117251298041 0.678263548047029 348.120640858763 0.678756216958376 

528.125          5.41763218050453E-006 -102.701113308392 0.724488935158993 35.328663376293  0.724488935158508 35.3286633763041 2.83345181302817E-006 -3.54948245858574 
! Gamma  !      12.6890684678606 7396.801287586   12.6890066494905 7396.81066123672 
! Port Impedance  347.604212374384 0.675305444062126 347.607605812287 0.675796020667274 

528.75           5.27622836484914E-006 -102.208815697974 0.72485142820635 6.80314897755943 0.724851428205828 6.80314897756996 2.76207278749724E-006 -61.1045295181836 
! Gamma  !      12.6692752710406 7416.40220635705 12.6692136623047 7416.41155521764 
! Port Impedance  347.095235820778 0.67238476231971 347.098633073984 0.672873256194533 

529.375          5.13379313822941E-006 -101.715965311266 0.72521107652264 -21.6807721282336 0.725211076522079 -21.6807721282237 2.68997942686134E-006 -118.57689253034 
! Gamma  !      12.6496485321447 7435.97454670845 12.6495871310401 7435.9838709454  
! Port Impedance  346.590272980534 0.669500911988568 346.593673988375 0.669987332608159 

530              4.99033601657994E-006 -101.222316461125 0.725567915080802 -50.1234273163215 0.725567915080203 -50.1234273163123 2.61717918005525E-006 -175.967180642601 
! Gamma  !      12.6301863202655 7455.51853369605 12.6301251248178 7455.52783347396 
! Port Impedance  346.089275988889 0.666653314282669 346.092680691872 0.667137671022716 

530.625          4.84586671828681E-006 -100.727596445582 0.725921978124962 -78.5251400814144 0.725921978124324 -78.5251400814058 2.54367960633222E-006 126.724005759317 
! Gamma  !      12.6108867353537 7475.03438969772 12.6108257436164 7475.04366517936 
! Port Impedance  345.592197756645 0.663841402161789 345.595606096431 0.664323704299924 

531.25           4.70039516161889E-006 -100.231500962135 0.726273299186906 -106.886230099886 0.726273299186229 -106.886230099878 2.469488366761E-006 69.4960750676433 
! Gamma  !      12.5917479075878 7494.52233445674 12.591687117642  7494.53158580305 
! Port Impedance  345.098991954226 0.661064620040885 345.102403873602 0.661544876758016 

531.875          4.5539314630759E-006 -99.7336885563623 0.72662191110223 -135.207013290754 0.726621911101515 -135.207013290747 2.39461321557831E-006 12.3484445048412 
! Gamma  !      12.5727679967598 7513.98258512413 12.5727074067137 7513.99181249427 
! Port Impedance  344.60961299613  0.658322423507952 344.613028438984 0.658800643889571 

532.5            4.40648593692873E-006 -99.2337738596104 0.72696784602618 -163.487801875385 0.726967846025425 -163.487801875379 2.31906199141363E-006 -44.7194597793119 
! Gamma  !      12.5539451916758 7533.41535630023 12.5538847996641 7533.4245598516  
! Port Impedance  344.124016025769 0.655614279050054 344.127434937066 0.656090472087524 

533.125          4.25806909630649E-006 -98.7313192967142 0.727311135449177 168.271095563991 0.727311135448384 168.271095563997 2.24284260840443E-006 -101.708202554986 
! Gamma  !      12.5352777095716 7552.82086007538 12.5352175137549 7552.83003996364 
! Port Impedance  343.64215690068  0.652939663787272 343.645579226436 0.653413838379092 

533.75           4.10869165629191E-006 -98.2258248448979 0.727651810212048 140.069374026939 0.727651810211216 140.069374026945 2.16596304721994E-006 -158.618339289462 
! Gamma  !      12.5167637955421 7572.19930606979 12.5167037941065 7572.20846244891 
! Port Impedance  343.163992178101 0.650298065214302 343.167417865361 0.650770230167356 

534.375          3.95836453963267E-006 -97.716715288665 0.727989900520953 111.906732038619 0.727989900520082 111.906732038624 2.08843134601211E-006 144.549584164926 
! Gamma  !      12.4984017219853 7591.55090147266 12.4983419131422 7591.56003449491 
! Port Impedance  342.6894791009   0.647688980949447 342.692908097717 0.648159144980228 

535              3.80709888587865E-006 -97.2033242271293 0.72832543596202 83.7828715947264 0.72832543596111 83.7828715947309 2.01025559131284E-006 87.795031997745  
! Gamma  !      12.4801897880596 7610.87585108037 12.4801301700447 7610.88496089639 
! Port Impedance  342.218575583851 0.645111918490764 342.222007839261 0.645580090226584 

535.625          3.65490606503697E-006 -96.6848738268045 0.728658445515693 55.69749810749   0.728658445514744 55.697498107494  1.93144390889677E-006 31.1174790168892 
! Gamma  !      12.4621263191535 7630.1743573341  12.4620668902267 7630.18344409287 
! Port Impedance  341.751240200235 0.642566394979132 341.754675664236 0.643032582959305 

536.25           3.50179769723684E-006 -96.1604489396373 0.728988957570804 27.6503203527703 0.728988957569817 27.6503203527739 1.85200445462992E-006 -25.4835885777594 
! Gamma  !      12.4442096663694 7649.44662035652 12.4441504248143 7649.45568420545 
! Port Impedance  341.287432168773 0.640051936968009 341.290870792305 0.640516149645024 

536.875          3.34778568047179E-006 -95.628963669688 0.729316999938365 -0.358949581839543 0.729316999937339 -0.358949581836467 1.77194540532406E-006 -82.0086721575143 
! Gamma  !      12.4264382060183 7668.69283798791 12.4263791501418 7668.70187907281 
! Port Impedance  340.827111340866 0.637568080199666 340.830553075791 0.638030325940332 

537.5            3.1928822293254E-006 -95.0891176891281 0.729642599865082 -28.3305963478627 0.729642599864018 -28.33059634786  1.69127494961842E-006 -138.458259271632 
! Gamma  !      12.408810339128  7687.91320582145 12.4087514672598 7687.92222428658 
! Port Impedance  340.370238188149 0.63511436938769 340.373682987229 0.635574656474274 

538.125          3.03709992883335E-006 -94.5393384426945 0.729965784046615 -56.2649013858265 0.729965784045514 -56.2649013858243 1.61000127891017E-006 165.167178235459 
! Gamma  !      12.3913244909617 7707.10791723785 12.391265801454  7707.11691322594 
! Port Impedance  339.916773790335 0.63269035800555 339.920221607212 0.633148694636885 

538.75           2.88045180951812E-006 -93.9777036243056 0.730286578640566 -84.1621429741549 0.730286578639427 -84.1621429741531 1.52813257835722E-006 108.867186790412 
! Gamma  !      12.3739791105491 7726.27716343938 12.3739206017759 7726.28613709163 
! Port Impedance  339.466679823347 0.630295608081034 339.470130612528 0.630752002373618 

539.375          2.72295145253859E-006 -93.4018356026703 0.730605009279213 -112.022596277153 0.730605009278038 -112.022596277152 1.445677017978E-006 52.6413346279745 
! Gamma  !      12.3567726702274 7745.42113348307 12.3567143405846 7745.43008493923 
! Port Impedance  339.01991854774  0.627929689996367 339.023372264576 0.628384149985441 

540              2.56461313848122E-006 -92.8087552051845 0.730921101081998 -139.84653339204 0.730921101080786 -139.846533392039 1.36264274387637E-006 -3.5107832661524 
! Gamma  !      12.3397036651943 7764.54001431348 12.3396455130988 7764.54894371181 
! Port Impedance  338.576452797385 0.625592182293834 338.579909398052 0.626044715934443 

540.625          2.40545206073108E-006 -92.1946753738599 0.731234878667752 -167.634223395092 0.731234878666505 -167.634223395092 1.27903786962395E-006 -59.5895381330874 
! Gamma  !      12.3227706130703 7783.63399079464 12.32271263696   7783.64289827196 
! Port Impedance  338.136245968426 0.623282671486728 338.139705409907 0.623733286654767 

541.25           2.24548463667903E-006 -91.5547037550513 0.731546366166695 164.614067613094 0.731546366165411 164.614067613094 1.19487046784032E-006 -115.59525726872 
! Gamma  !      12.305972053472  7802.7032457415  12.3059142518053 7802.7121314332  
! Port Impedance  337.699262008488 0.621000751875463 337.70272424856  0.621449456368706 

541.875          2.08472897113905E-006 -90.8824036699941 0.731855587232177 136.898076463204 0.731855587230858 136.898076463204 1.11014856202458E-006 -171.528208950834 
! Gamma  !      12.2893065475951 7821.74795995071 12.2892489188505 7821.7568239908  
! Port Impedance  337.265465406144 0.618746025368681 337.268930403357 0.619192826907791 

542.5            1.92320556384436E-006 -90.1691281241381 0.732162565052206 109.217542873606 0.732162565050853 109.217542873605 1.024880118716E-006 132.611420495016 
! Gamma  !      12.2727726778064 7840.76831223091 12.2727152204822 7840.77715475199 
! Port Impedance  336.834821180617 0.616518101309202 336.83828889428  0.616963007538728 

543.125          1.76093842218704E-006 -89.4029773027071 0.732467322360724 81.5722094076538 0.732467322359338 81.5722094076531 9.39073040105377E-007 76.823562689809  
! Gamma  !      12.2563690472463 7859.76447943227 12.2563117598602 7859.77330056561 
! Port Impedance  336.407294871731 0.614316596304666 336.410765261894 0.614759614794026 

543.75           1.59795687450584E-006 -88.5671059132593 0.732769881448672 53.9618214317089 0.732769881447252 53.9618214317079 8.52735157305082E-007 21.108325794185  
! Gamma  !      12.2400942794393 7878.73663647569 12.2400371605281 7878.74543635119 
! Port Impedance  335.982852530079 0.612141134062721 335.986325557519 0.612582272307167 

544.375          1.43429865331403E-006 -87.6368537340972 0.733070264174821 26.3861270739792 0.733070264173369 26.3861270739779 7.65874224662328E-007 -34.5339058683186 
! Gamma  !      12.223947017914  7897.68495638125 12.2238900660334 7897.69373512751 
! Port Impedance  335.561460707427 0.609991345230618 335.564936333634 0.610430610652183 

545              1.27001541497044E-006 -86.5746231093649 0.733368491976394 -1.15512281586486 0.73336849197491 -1.15512281586642 6.78497915886772E-007 -90.102293280225 
! Gamma  !      12.2079259258318 7916.60961029626 12.2078691395556 7916.61836804056 
! Port Impedance  335.143086447333 0.607866867239073 335.146564634493 0.60830426718751 

545.625          1.10518326766472E-006 -85.3201385214044 0.733664585879467 -28.6621747063539 0.733664585877952 -28.6621747063557 5.9061382367918E-007 -145.595201376724 
! Gamma  !      12.192029685623  7935.51076752273 12.1919730635436 7935.51950439109 
! Port Impedance  334.727697275976 0.605767344150268 334.731177986957 0.606202885903972 

546.25           9.39924517855331E-007 -83.7704055849261 0.733958566509158 -56.13527242313  0.733958566507612 -56.1352724231319 5.02229466940324E-007 158.99050930508  
! Gamma  !      12.176256998633  7954.38859554436 12.1762005393603 7954.39731166149 
! Port Impedance  334.315261193199 0.603692426509874 334.318744391536 0.604126117276785 

546.875          7.74457472562129E-007 -81.7340751711457 0.734250454099613 -83.5746571871619 0.734250454098038 -83.5746571871641 4.13352316731441E-007 103.661118612936 
! Gamma  !      12.1606065847742 7973.24326005296 12.1605502869357 7973.25195554236 
! Port Impedance  333.905746663742 0.601641771202953 333.909232313628 0.602073618121453 

547.5            6.0922751513371E-007 -78.812455370077 0.734540268503786 -110.980567652238 0.734540268502182 -110.98056765224 3.23989877069123E-007 48.4304230702036 
! Gamma  !      12.1450771821873 7992.07492497447 12.1450210444277 7992.08359995839 
! Port Impedance  333.499122608689 0.599615041313643 333.502610674955 0.600045051453432 

548.125          4.45327757974747E-007 -74.0244689464886 0.734828029203018 -138.353239941812 0.734828029201386 -138.353239941815 2.34149968375338E-007 -6.66571926969434 
! Gamma  !      12.1296675469093 8010.88375249446 12.1296115678903 8010.89240709395 
! Port Impedance  333.095358397085 0.597611905988498 333.098848845192 0.59804008635146 

548.75           2.86331334975057E-007 -64.2443243007524 0.73511375531642 -165.692907685135 0.735113755314761 -165.692907685138 1.4384210868058E-007 -61.499693876    
! Gamma  !      12.1143764525494 8029.66990308316 12.1143206309494 8029.67853741806 
! Port Impedance  332.694423837761 0.595632040303382 332.697916633784 0.596058397824438 

549.375          1.51254181554166E-007 -35.0945561787515 0.735397465610063 167.000197947221 0.735397465608377 167.000197947219 5.30931788825338E-008 -115.064831353183 
! Gamma  !      12.0992026899716 8048.43353552004 12.0991470244852 8048.44214970901 
! Port Impedance  332.296289171319 0.593675125133805 332.299784281936 0.594099666681752 

550              1.47290198790203E-007 35.0602583921416 0.735679178505975 139.725848208509 0.735679178504263 139.725848208506 3.82619274204677E-008 4.00548115098196 
! Gamma  !      12.0841450669843 8067.17480691794 12.0840895563223 8067.18340107848 
! Port Impedance  331.900925062314 0.591740847028598 331.904422454793 0.592163579406934 

550.625          2.81290100288736E-007 65.9058419165377 0.735958912090957 112.483816741557 0.73595891208922 112.483816741554 1.29903841718619E-007 -48.5710878875617 
! Gamma  !      12.069202408037  8085.89387274677 12.0691470509261 8085.90244699525 
! Port Impedance  331.508302591589 0.589828898086839 331.511802233778 0.59024982803458 

551.25           4.42542034100371E-007 76.0675332333212 0.736236684125213 85.273879545157  0.736236684123452 85.2738795451539 2.2203077473231E-007 -103.07596397771 
! Gamma  !      12.0543735539235 8104.5908868568  12.0543183491058 8104.59944130842 
! Port Impedance  331.118393248793 0.587938975837918 331.121895109107 0.588358110030394 

551.875          6.10341336589429E-007 80.9771416136539 0.736512512050793 58.0958149410079 0.736512512049009 58.0958149410047 3.14601649847482E-007 -157.760518759744 
! Gamma  !      12.0396573614912 8123.26600150147 12.0396023077242 8123.27453627034 
! Port Impedance  330.731168925054 0.586070783124659 330.734672972462 0.586488128174308 

552.5            7.80893858516593E-007 83.948927888435  0.736786412999873 30.9494035412824 0.736786412998067 30.9494035412792 4.07607063610274E-007 147.540627397823 
! Gamma  !      12.0250527033571 8141.91936735986 12.0249977994134 8141.92788255899 
! Port Impedance  330.346601905812 0.584224027989408 330.35010810983  0.584639590446549 

553.125          9.53057676233781E-007 86.0083866926349 0.737058403802847 3.83442821676356 0.737058403801019 3.83442821676036 5.01040204565744E-007 92.8704709857255 
! Gamma  !      12.0105584676301 8160.55113355875 12.0105037122971 8160.55962930004 
! Port Impedance  329.96466486381  0.582398423563   329.968173194485 0.582812209916601 
