! TOUCHSTONE file generated by CST MICROWAVE STUDIO
! Date and time: Mon Jul 31 16:08:40 2017
! Project name: secret_device.cst
! Parameters = {Z0_coax=50; box_add_th=400; box_d=75.4; box_full_d=101; box_full_h=924; box_full_w=378; box_inner_h=888; box_inner_w=342; capa=188; tap_plate_h1=75; tap_plate_horiz_l=25; tap_plate_horiz_th=20; tap_plate_th=6; tap_plate_w=46; tap_point_h_vs_center_coax=65}
! Header version: 2015
! Port assignment regex: !\s*Touchstone port\s*([0-9]+)\s*=\s*CST MWS port\s*([0-9]+)\s*\(\"(.*)\"\)(\s*mode\s*([0-9]+))?.*
! Touchstone port assignment:
! Touchstone port 1 = CST MWS port 1 ("")
! Touchstone port 2 = CST MWS port 2 ("")
! Touchstone port 3 = CST MWS port 3 ("")
! Touchstone port 4 = CST MWS port 4 ("")
# MHz S MA R 50
0                       0.999994        -179.999     1.03955e-005        -15.9072     5.31651e-006          106.18     1.90152e-006        -83.0961
                    1.31661e-005        -11.4801         0.999994             180     1.03245e-006         10.8762     1.76021e-005         160.475
                    4.14285e-006         103.848     3.29355e-006        -88.9217         0.999992        -179.999     1.07076e-005         1.67704
                    1.98921e-006        -14.3726      4.2208e-006         161.603     1.26767e-005        -7.33763         0.999992            -180
0.1                      0.99999         179.595       0.00288829         89.5037      0.000919746        -90.5563      0.000378621        -90.4961
                      0.00288856         89.4514          0.99999         179.775      0.000377322        -90.3802     2.17663e-005         135.343
                     0.000920711        -90.5284      0.000380308          -90.52         0.999988         179.594       0.00289326         89.4899
                      0.00037746        -90.2551     1.21235e-005         112.283       0.00289166         89.4577         0.999989         179.776
0.2                     0.999977         179.189       0.00577928         89.2911       0.00184448        -90.9828       0.00075534        -91.0321
                       0.0057796         89.2698         0.999978         179.551      0.000754803        -90.9812     2.97327e-005         123.435
                      0.00184534        -90.9714      0.000757322        -91.0423         0.999975         179.188       0.00578608         89.2844
                     0.000754389        -90.9302      2.2357e-005         108.571       0.00578479          89.272         0.999977         179.551
0.3                     0.999954         178.784          0.00867         89.0039       0.00276902        -91.4441       0.00113201        -91.5551
                      0.00867037         88.9918         0.999958         179.326       0.00113222        -91.5241     3.96581e-005         119.845
                      0.00276977        -91.4375        0.0011343        -91.5611         0.999953         178.781       0.00867867         88.9991
                      0.00113126        -91.4952     3.34703e-005         110.897       0.00867767         88.9926         0.999956         179.327
0.4                     0.999922         178.378        0.0115603         88.7007        0.0036933        -91.9128        0.0015086        -92.0753
                       0.0115608         88.6932         0.999929         179.101       0.00150953        -92.0547     5.08537e-005         119.756
                      0.00369396        -91.9086       0.00151121        -92.0792         0.999921         178.375        0.0115709         88.6969
                      0.00150803        -92.0367     4.55682e-005         114.463        0.0115702         88.6932         0.999928         179.102
0.5                      0.99988         177.972        0.0144502         88.3907       0.00461724        -92.3846       0.00188507        -92.5943
                       0.0144506         88.3858         0.999891         178.877       0.00188671        -92.5798     6.34374e-005         121.422
                      0.00461781        -92.3818       0.00188802         -92.597         0.999879         177.968        0.0144626         88.3872
                      0.00188467         -92.568      5.9002e-005          118.31        0.0144622         88.3851          0.99989         178.878
0.6                     0.999829         177.567        0.0173393         88.0775       0.00554079        -92.8578        0.0022614        -93.1128
                       0.0173399         88.0743         0.999845         178.652       0.00226373        -93.1025     7.74526e-005         123.798
                      0.00554128        -92.8558       0.00226469        -93.1146         0.999828         177.562        0.0173538         88.0743
                      0.00226115        -93.0946     7.38884e-005         122.047        0.0173535         88.0731         0.999844         178.653
0.7                     0.999768         177.161        0.0202277         87.7624       0.00646385        -93.3317       0.00263754        -93.6309
                       0.0202283         87.7604          0.99979         178.427       0.00264054        -93.6235     9.32052e-005         126.447
                      0.00646427        -93.3304       0.00264119        -93.6321         0.999767         177.155        0.0202441         87.7593
                      0.00263744        -93.6182     9.05397e-005         125.508         0.020244         87.7587         0.999789         178.429
0.8                     0.999698         176.756        0.0231151         87.4463       0.00738638        -93.8061       0.00301347        -94.1487
                       0.0231158         87.4451         0.999727         178.203       0.00301713        -94.1436      0.000110715           129.1
                      0.00738673        -93.8051       0.00301749        -94.1495         0.999697         176.749        0.0231335         87.4431
                       0.0030135          -94.14      0.000108957         128.657        0.0231337         87.4429         0.999726         178.204
0.9                     0.999618          176.35        0.0260015         87.1295       0.00830826        -94.2807       0.00338915        -94.6663
                       0.0260022         87.1288         0.999655         177.978       0.00339345         -94.663      0.000130262         131.619
                      0.00830856        -94.2801       0.00339355        -94.6669         0.999618         176.343        0.0260219         87.1261
                       0.0033893        -94.6607        0.0001294         131.457        0.0260222         87.1263         0.999654          177.98
1                        0.99953         175.945        0.0288867         86.8122       0.00922949        -94.7554       0.00376456        -95.1838
                       0.0288875         86.8119         0.999575         177.754       0.00376948        -95.1818      0.000151786         133.952
                      0.00922973         -94.755       0.00376934        -95.1841         0.999529         175.937        0.0289092         86.8087
                      0.00376481        -95.1804      0.000151788         133.949        0.0289096          86.809         0.999574         177.755
1.1                     0.999431          175.54        0.0317706         86.4946        0.0101499        -95.2302       0.00413964         -95.701
                       0.0317715         86.4946         0.999486         177.529       0.00414517        -95.7003      0.000175525         136.057
                       0.0101501        -95.2299       0.00414482        -95.7012         0.999431         175.531        0.0317951         86.4909
                      0.00413999        -95.6995      0.000176344         136.132        0.0317957         86.4913         0.999485         177.531
1.2                     0.999323         175.134        0.0346531         86.1768        0.0110696        -95.7049       0.00451439        -96.2182
                        0.034654         86.1771         0.999389         177.305       0.00452051        -96.2183       0.00020136         137.948
                       0.0110697        -95.7048       0.00451998        -96.2183         0.999323         175.125        0.0346797          86.173
                      0.00451483         -96.218      0.000202941         138.058        0.0346804         86.1734         0.999388         177.307
1.3                     0.999206         174.729        0.0375339         85.8589        0.0119883        -96.1796       0.00488874        -96.7352
                       0.0375349         85.8593         0.999283          177.08       0.00489544        -96.7361      0.000229503         139.618
                       0.0119884        -96.1795       0.00489475        -96.7352         0.999206         174.719        0.0375626         85.8548
                      0.00488926         -96.736      0.000231779         139.734        0.0375634         85.8553         0.999282         177.083
1.4                      0.99908         174.324        0.0404131         85.5409         0.012906        -96.6541        0.0052627         -97.252
                       0.0404142         85.5414         0.999169         176.856       0.00526997        -97.2536      0.000259801         141.099
                       0.0129061        -96.6541       0.00526913        -97.2519         0.999079         174.313        0.0404439         85.5366
                      0.00526328        -97.2537      0.000262707         141.206        0.0404447         85.5371         0.999168         176.858
1.5                     0.998944          173.92        0.0432904          85.223        0.0138227        -97.1285        0.0056362        -97.7686
                       0.0432915         85.2235         0.999046         176.632       0.00564402        -97.7707      0.000292447         142.392
                       0.0138228        -97.1286       0.00564306        -97.7686         0.998943         173.907        0.0433233         85.2184
                      0.00563684         -97.771       0.00029591         142.484        0.0433242         85.2189         0.999045         176.634
1.6                     0.998799         173.515        0.0461658          84.905        0.0147384        -97.6028       0.00600925        -98.2851
                        0.046167         84.9056         0.998915         176.408        0.0060176        -98.2877      0.000327271          143.53
                       0.0147384        -97.6029       0.00601654         -98.285         0.998798         173.502        0.0462008         84.9001
                      0.00600993        -98.2879      0.000331224         143.603        0.0462018         84.9006         0.998914          176.41
1.7                     0.998644          173.11        0.0490391         84.5871        0.0156528        -98.0769       0.00638176        -98.8013
                       0.0490403         84.5877         0.998776         176.184       0.00639063        -98.8043      0.000364458         144.516
                       0.0156528         -98.077        0.0063895        -98.8013         0.998644         173.096        0.0490762         84.5819
                      0.00638248        -98.8046      0.000368828         144.572        0.0490772         84.5823         0.998774         176.186
1.8                     0.998481         172.706        0.0519102         84.2692         0.016566        -98.5508       0.00675375        -99.3174
                       0.0519114         84.2698         0.998628          175.96       0.00676314        -99.3207      0.000403826         145.378
                        0.016566        -98.5509       0.00676194        -99.3174          0.99848         172.691        0.0519495         84.2638
                       0.0067545        -99.3209      0.000408548         145.417        0.0519504         84.2641         0.998627         175.963
1.9                     0.998308         172.302        0.0547789         83.9514        0.0174778        -99.0244       0.00712515        -99.8332
                       0.0547802          83.952         0.998472         175.736       0.00713504        -99.8368      0.000445555         146.121
                       0.0174778        -99.0246       0.00713379        -99.8333         0.998307         172.286        0.0548203         83.9457
                      0.00712592        -99.8369      0.000450559         146.144        0.0548213          83.946          0.99847         175.739
2                       0.998127         171.898        0.0576453         83.6337        0.0183883        -99.4979       0.00749597        -100.349
                       0.0576465         83.6343         0.998308         175.512       0.00750635        -100.353      0.000489458         146.764
                       0.0183883        -99.4981       0.00750507        -100.349         0.998126         171.881        0.0576888         83.6277
                      0.00749675        -100.353      0.000494682         146.776        0.0576897          83.628         0.998306         175.515
2.1                     0.997935         171.494        0.0605089         83.3161        0.0192974        -99.9711       0.00786612        -100.864
                       0.0605102         83.3167         0.998135         175.288       0.00787698        -100.868      0.000535711         147.313
                       0.0192973        -99.9713       0.00787569        -100.864         0.997934         171.477        0.0605546         83.3098
                      0.00786692        -100.868       0.00054109         147.315        0.0605554           83.31         0.998133         175.291
2.2                     0.997736          171.09        0.0633699         82.9987        0.0202049        -100.444       0.00823564        -101.379
                       0.0633712         82.9992         0.997954         175.065       0.00824697        -101.383      0.000584125         147.784
                       0.0202049        -100.444       0.00824567         -101.38         0.997734         171.072        0.0634178          82.992
                      0.00823643        -101.383      0.000589601         147.777        0.0634185         82.9922         0.997952         175.068
2.3                     0.997526         170.686         0.066228         82.6814        0.0211108        -100.917       0.00860443        -101.894
                       0.0662293         82.6819         0.997765         174.841       0.00861622        -101.898      0.000634872         148.179
                       0.0211108        -100.917       0.00861494        -101.895         0.997525         170.668         0.066278         82.6744
                      0.00860522        -101.898      0.000640385         148.166        0.0662787         82.6745         0.997762         174.845
2.4                     0.997308         170.283        0.0690832         82.3642        0.0220151        -101.389       0.00897252        -102.409
                       0.0690845         82.3646         0.997568         174.618       0.00898476        -102.413      0.000687763         148.512
                       0.0220151        -101.389        0.0089835        -102.409         0.997307         170.263        0.0691354         82.3569
                       0.0089733        -102.412      0.000693259         148.495         0.069136          82.357         0.997565         174.621
2.5                     0.997081          169.88        0.0719353         82.0472        0.0229177        -101.861       0.00933982        -102.923
                       0.0719365         82.0476         0.997362         174.395       0.00935249        -102.927      0.000742967         148.783
                       0.0229177        -101.861       0.00935128        -102.924         0.997079         169.859        0.0719896         82.0396
                      0.00934058        -102.927      0.000748389         148.764          0.07199         82.0396         0.997359         174.398
2.6                     0.996845         169.477        0.0747842         81.7304        0.0238185        -102.333       0.00970635        -103.437
                       0.0747854         81.7307         0.997149         174.171       0.00971947        -103.441      0.000800296         149.005
                       0.0238185        -102.333        0.0097183        -103.438         0.996843         169.456        0.0748407         81.7224
                      0.00970709         -103.44      0.000805595         148.984         0.074841         81.7224         0.997145         174.175
2.7                       0.9966         169.074        0.0776297         81.4137        0.0247174        -102.804         0.010072        -103.951
                       0.0776309          81.414         0.996927         173.948        0.0100856        -103.955      0.000859916         149.178
                       0.0247175        -102.805        0.0100845        -103.951         0.996597         169.052        0.0776883         81.4054
                       0.0100728        -103.954       0.00086504         149.157        0.0776885         81.4054         0.996923         173.952
2.8                     0.996346         168.672        0.0804719         81.0972        0.0256145        -103.276        0.0104369        -104.464
                       0.0804731         81.0974         0.996698         173.725        0.0104509        -104.468       0.00092164         149.309
                       0.0256146        -103.276        0.0104498        -104.465         0.996343         168.649        0.0805326         81.0886
                       0.0104376        -104.467      0.000926541         149.289        0.0805327         81.0885         0.996693          173.73
2.9                     0.996084         168.269        0.0833104          80.781        0.0265095        -103.746        0.0108009        -104.977
                       0.0833115         80.7811          0.99646         173.503        0.0108152        -104.981       0.00098563         149.401
                       0.0265096        -103.747        0.0108143        -104.978          0.99608         168.246        0.0833733          80.772
                       0.0108015         -104.98      0.000990261         149.382        0.0833731         80.7719         0.996455         173.507
3                       0.995812         167.867        0.0861454         80.4649        0.0274026        -104.217        0.0111639        -105.489
                       0.0861464          80.465         0.996214          173.28        0.0111787        -105.494        0.0010517         149.459
                       0.0274027        -104.217        0.0111778        -105.491         0.995809         167.843        0.0862103         80.4556
                       0.0111645        -105.492       0.00105602         149.441          0.08621         80.4554         0.996209         173.284
3.1                     0.995532         167.465        0.0889764          80.149        0.0282935        -104.687         0.011526        -106.002
                       0.0889773          80.149          0.99596         173.057        0.0115412        -106.006       0.00112001         149.483
                       0.0282936        -104.687        0.0115404        -106.003         0.995528          167.44        0.0890434         80.1394
                       0.0115266        -106.004       0.00112397         149.469         0.089043         80.1392         0.995955         173.062
3.2                     0.995244         167.064        0.0918037         79.8333        0.0291823        -105.157        0.0118872        -106.513
                       0.0918045         79.8333         0.995699         172.835        0.0119028        -106.518       0.00119038         149.481
                       0.0291824        -105.157        0.0119021        -106.515         0.995239         167.038        0.0918728         79.8233
                       0.0118877        -106.516       0.00119394         149.468        0.0918721         79.8231         0.995693          172.84
3.3                     0.994946         166.662        0.0946268         79.5179        0.0300688        -105.626        0.0122473        -107.025
                       0.0946275         79.5178         0.995429         172.613        0.0122633        -107.029       0.00126297         149.451
                       0.0300689        -105.626        0.0122627        -107.027         0.994941         166.636        0.0946979         79.5076
                       0.0122478        -107.027       0.00126609          149.44        0.0946971         79.5073         0.995423         172.618
3.4                      0.99464         166.261        0.0974459         79.2027        0.0309531        -106.095        0.0126065        -107.536
                       0.0974465         79.2026         0.995152         172.391        0.0126228         -107.54       0.00133759         149.397
                       0.0309533        -106.095        0.0126223        -107.538         0.994635         166.234        0.0975191          79.192
                       0.0126069        -107.538       0.00134022          149.39         0.097518         79.1917         0.995146         172.396
3.5                     0.994326         165.861         0.100261         78.8877        0.0318349        -106.563        0.0129645        -108.047
                        0.100261         78.8875         0.994867         172.169        0.0129812         -108.05       0.00141439         149.321
                       0.0318352        -106.563        0.0129809        -108.048          0.99432         165.832         0.100336         78.8767
                       0.0129649        -108.048       0.00141651         149.316         0.100335         78.8764          0.99486         172.174
3.6                     0.994003          165.46         0.103071          78.573        0.0327145        -107.031        0.0133215        -108.557
                        0.103071         78.5727         0.994574         171.947        0.0133386         -108.56        0.0014932         149.226
                       0.0327147        -107.031        0.0133384        -108.559         0.993996         165.431         0.103148         78.5616
                       0.0133218        -108.558       0.00149477         149.223         0.103147         78.5613         0.994567         171.952
3.7                     0.993671          165.06         0.105877         78.2585        0.0335915        -107.499        0.0136774        -109.066
                        0.105877         78.2582         0.994274         171.726        0.0136948         -109.07       0.00157416         149.111
                       0.0335917        -107.499        0.0136947        -109.069         0.993664          165.03         0.105956         78.2467
                       0.0136776        -109.068       0.00157515          149.11         0.105954         78.2465         0.994266         171.731
3.8                     0.993331          164.66         0.108678         77.9442         0.034466        -107.966        0.0140322        -109.576
                        0.108678         77.9439         0.993966         171.504          0.01405        -109.579       0.00165711          148.98
                       0.0344663        -107.966          0.01405        -109.578         0.993324         164.629          0.10876         77.9322
                       0.0140324        -109.577       0.00165747          148.98         0.108758         77.9319         0.993957          171.51
3.9                     0.992983          164.26         0.111475         77.6303        0.0353379        -108.433        0.0143857        -110.084
                        0.111475         77.6299          0.99365         171.283        0.0144039        -110.088       0.00174218         148.833
                       0.0353382        -108.433         0.014404        -110.087         0.992975         164.229         0.111558         77.6178
                       0.0143858        -110.085       0.00174189         148.834         0.111556         77.6175         0.993641         171.289
4                       0.992627         163.861         0.114267         77.3165        0.0362073        -108.899        0.0147381        -110.593
                        0.114266         77.3162         0.993327         171.062        0.0147567        -110.596        0.0018292         148.672
                       0.0362076        -108.899        0.0147569        -110.595         0.992619         163.829         0.114352         77.3038
                       0.0147382        -110.593       0.00182823         148.674         0.114349         77.3035         0.993317         171.068
4.1                     0.992262         163.462         0.117053         77.0031        0.0370738        -109.365        0.0150893        -111.101
                        0.117053         77.0027         0.992996         170.841        0.0151082        -111.103       0.00191831         148.498
                       0.0370742        -109.365        0.0151086        -111.103         0.992253         163.429         0.117141           76.99
                       0.0150893        -111.101       0.00191663         148.499         0.117138         76.9897         0.992986         170.847
4.2                     0.991889         163.063         0.119835         76.6899        0.0379377         -109.83        0.0154392        -111.608
                        0.119835         76.6895         0.992657          170.62        0.0154585        -111.611       0.00200933         148.311
                       0.0379381         -109.83         0.015459        -111.611          0.99188         163.029         0.119925         76.6765
                       0.0154392        -111.608       0.00200693         148.312         0.119922         76.6762         0.992647         170.627
4.3                     0.991508         162.665         0.122612         76.3771        0.0387987        -110.295        0.0157879        -112.115
                        0.122611         76.3766         0.992312           170.4        0.0158075        -112.117       0.00210242         148.113
                       0.0387991        -110.295        0.0158082        -112.118         0.991498          162.63         0.122703         76.3633
                       0.0157877        -112.114       0.00209927         148.113           0.1227          76.363         0.992301         170.406
4.4                      0.99112         162.267         0.125384         76.0645        0.0396569        -110.759        0.0161353        -112.621
                        0.125383          76.064         0.991959          170.18        0.0161552        -112.623       0.00219738         147.905
                       0.0396574        -110.759         0.016156        -112.624         0.991109         162.231         0.125477         76.0503
                       0.0161351         -112.62       0.00219347         147.903         0.125473         76.0501         0.991947         170.186
4.5                     0.990723         161.869          0.12815         75.7522        0.0405121        -111.223        0.0164813        -113.126
                        0.128149         75.7517         0.991598          169.96        0.0165016        -113.129       0.00229436         147.687
                       0.0405126        -111.223        0.0165025         -113.13         0.990712         161.833         0.128245         75.7377
                        0.016481        -113.125       0.00228968         147.682         0.128241         75.7375         0.991586         169.966
4.6                     0.990318         161.472         0.130911         75.4402        0.0413644        -111.686         0.016826        -113.632
                        0.130909         75.4397         0.991231          169.74        0.0168467        -113.634       0.00239318          147.46
                       0.0413649        -111.687        0.0168478        -113.635         0.990306         161.435         0.131007         75.4253
                       0.0168257         -113.63       0.00238773         147.452         0.131003         75.4251         0.991219         169.747
4.7                     0.989905         161.075         0.133666         75.1285        0.0422136        -112.149        0.0171693        -114.136
                        0.133664          75.128         0.990856          169.52        0.0171903        -114.138       0.00249398         147.225
                       0.0422142        -112.149        0.0171916         -114.14         0.989893         161.037         0.133764         75.1133
                        0.017169        -114.135       0.00248775         147.212          0.13376         75.1131         0.990843         169.527
4.8                     0.989485         160.678         0.136416         74.8171        0.0430599        -112.611        0.0175113         -114.64
                        0.136414         74.8166         0.990474         169.301        0.0175326        -114.642       0.00259657         146.982
                       0.0430605        -112.611         0.017534        -114.644         0.989472          160.64         0.136516         74.8016
                       0.0175109        -114.638       0.00258958         146.965         0.136511         74.8014         0.990461         169.308
4.9                     0.989056         160.282         0.139159          74.506        0.0439029        -113.073        0.0178518        -115.143