! Touchstone file from project gndCpw
! Exported from HFSS 14.0.0
! Variables:
!  airbox_h = 500um
!  cc_h = 6.7um
!  cc_l = 2mm
!  cc_w = 70um
!  cpw_pitch = 155um
!  gap = 70um
!  l_2_via1 = 250um
!  length = 500um
!  oc_w = 70um
!  s = 30um
!  sub_h = 100um
!  sub_w = 465um
!  via_r = 30um
!  wp_w_factor = 1.3
!Data is not renormalized
# GHZ S MA
! Modal data exported
! Port[1] = 1:1
! Port[2] = 2:1
75               0.00704607529970448 -86.1700776742048 0.984080364193039 -108.439410263506 0.984080364196934 -108.439410263507 0.00694751014337044 -85.9407145828164 
! Gamma  !      10.3322101252995 3736.34654552359 9.8996147444026  3736.11167025233 
! Port Impedance  49.6880494439638 -0.112098324722594 49.626538212863  -0.112974315275203 

75.35            0.007061909975316 -87.0684742612378 0.984052035941887 -108.962681869182 0.984052035945923 -108.962681869183 0.00697270556758125 -86.845627118644 
! Gamma  !      10.3570292406394 3754.4893182725  9.92304800264537 3754.25327802224 
! Port Impedance  49.6838474240077 -0.111842377083077 49.6212691755067 -0.112779319033166 

75.7             0.00707354034684172 -87.970896168829 0.984023648290401 -109.486232803522 0.984023648294567 -109.486232803522 0.00699370532199397 -87.7577677932422 
! Gamma  !      10.3818044442734 3772.64217193038 9.9464409654302  3772.40495100522 
! Port Impedance  49.6797388576816 -0.111589089076027 49.6161887521379 -0.112581064661906 

76.05            0.00708076433008491 -88.8752263230505 0.983995197565354 -110.010065040381 0.983995197569641 -110.010065040381 0.00701025358537343 -88.6749711810229 
! Gamma  !      10.4065342441662 3790.80514745795 9.96979223585404 3790.5667302268  
! Port Impedance  49.6757232004593 -0.111338459894546 49.6112914188973 -0.112379945433923 

76.4             0.00708340178669605 -89.7791366991933 0.983966679950221 -110.534180555149 0.98396667995462 -110.534180555149 0.00702211510100601 -89.5948182970931 
! Gamma  !      10.4312171597359 3808.9782857626  9.9931004277928  3808.73865665884 
! Port Impedance  49.6717999099145 -0.111090488012829 49.6065718784166 -0.112176327615292 

76.75            0.00708129912014716 -90.6800915537817 0.98393809148299 -111.05858132455 0.98393809148749 -111.058581324549 0.00702908099506768 -90.5146378714669 
! Gamma  !      10.4558517221878 3827.16162769704 10.0163641662155 3826.92077121829 
! Port Impedance  49.6679684458192 -0.110845171213573 49.6020250484054 -0.111970552375148 

77.1             0.00707433382175374 -91.5753544070088 0.983909428053959 -111.583269326439 0.983909428058551 -111.583269326437 0.00703097468258235 -91.4315125060384 
! Gamma  !      10.4804364748514 3845.355214058   10.0395820875012 3845.11311476583 
! Port Impedance  49.6642282702386 -0.110602506614617 49.5976460509188 -0.111762937548343 

77.45            0.00706241882911503 -92.4619990599638 0.983880685403525 -112.108246539594 0.9838806854082  -112.108246539592 0.00702765767828016 -92.3422902006909 
! Gamma  !      10.5049699735216 3863.55908558493 10.0627528397587 3863.31572810466 
! Port Impedance  49.6605788476204 -0.11036249069481 49.5934302022596 -0.111553779263669 

77.8             0.00704550655008709 -93.3369248399344 0.98385185911996 -112.633514943508 0.983851859124708 -112.633514943506 0.007019035108453 -93.2436016076558 
! Gamma  !      10.5294507868009 3881.77328295868 10.0858750831493 3881.52865197917 
! Port Impedance  49.6570196448808 -0.110125119319127 49.5893730034718 -0.111343353448884 

78.15            0.00702359240267484 -94.196876158097 0.983822944637172 -113.159076518177 0.983822944641984 -113.159076518175 0.00700506070762886 -94.1318832116316 
! Gamma  !      10.5538774964469 3899.99784680021 10.1089474902126 3899.7519270737  
! Port Impedance  49.6535501314856 -0.10989038776306 49.5854701313856 -0.111131917222743 

78.5             0.00699671772608425 -95.0384663412248 0.983793937232456 -113.684933243877 0.983793937237322 -113.684933243874 0.00698574108286486 -95.0034064428326 
! Gamma  !      10.5782486977212 3918.23281766931 10.1319687461949 3917.98559401124 
! Port Impedance  49.6501697795278 -0.109658290736288 49.5817174301764 -0.11091971018333 

78.85            0.00696497193118184 -95.8582055682784 0.983764832024238 -114.211087100945 0.983764832029149 -114.211087100942 0.00696113904032169 -95.854312519746 
! Gamma  !      10.6025629997425 3936.4782360633  10.1549375493809 3936.22969335223 
! Port Impedance  49.6468780638012 -0.109428822405653 49.5781109034046 -0.110706955601145 

79.2             0.00692849377971339 -96.6525326106092 0.983735623969798 -114.737540069555 0.983735623974745 -114.737540069552 0.00693137579416944 -96.6806525992607 
! Gamma  !      10.6268190258423 3954.73414241577 10.1778526114282 3954.48426559321 
! Port Impedance  49.6436744618699 -0.109201976417456 49.5746467065038 -0.11049386152463 

79.55            0.00688747171009078 -97.4178499482448 0.983706307862997 -115.264294129489 0.983706307867972 -115.264294129486 0.00689663191621674 -97.4784325970812 
! Gamma  !      10.6510154139247 3973.00057709528 10.200712657705  3972.74935116565 
! Port Impedance  49.6405584541351 -0.108977745919085 49.5713211396894 -0.11028062180518 

79.9             0.00684214316193661 -98.1505617214709 0.98367687833198 -115.791351259903 0.983676878336973 -115.7913512599  0.00685714693409375 -98.2436618445881 
! Gamma  !      10.6751508168281 3991.27758040412 10.223516427631  3991.02499043467 
! Port Impedance  49.6375295238968 -0.108756123580005 49.568130641259  -0.110067417048023 

80.25            0.0067927928898495 -98.8471138829173 0.983647329836878 -116.318713439089 0.983647329841881 -116.318713439085 0.00681321754329082 -98.9724045823063 
! Gamma  !      10.6992239026914 4009.56519257699 10.2462626750211 4009.31122369776 
! Port Impedance  49.6345871574141 -0.108537101612099 49.5650717812608 -0.109854415494829 

80.6             0.00673975029656399 -99.5040358453357 0.983617656667496 -116.846382644237 0.983617656672501 -116.846382644233 0.00676519445985009 -99.660833165394 
! Gamma  !      10.7232333553231 4027.86345377981 10.2689501684323 4027.60809118359 
! Port Impedance  49.6317308439601 -0.108320671789412 49.5621412555064 -0.10964177384339 

80.95            0.00668338585417566 -100.117982876872 0.983587852940998 -117.374360851188 0.983587852945995 -117.374360851184 0.00671347800148331 -100.305281780059 
! Gamma  !      10.7471778745734 4046.17240410839 10.2915776915139 4045.91563305075 
! Port Impedance  49.6289600758755 -0.108106825467281 49.5593358799058 -0.109429638009267 

81.3             0.00662410671680536 -100.685778479188 0.983557912599576 -117.90265003419 0.983557912604558 -117.902650034186 0.00665851254076485 -100.902299444312 
! Gamma  !      10.7710561767103 4064.49208358722 10.314144043361  4064.23388938647 
! Port Impedance  49.6262743486177 -0.107895553600883 49.5566525851058 -0.109218143833874 

81.65            0.00656235165674273 -101.204455992183 0.983527829408117 -118.431252165638 0.983527829413075 -118.431252165634 0.00660078002072932 -101.448701090263 
! Gamma  !      10.7948669947987 4082.82253216817 10.3366480388705 4082.56290020545 
! Port Impedance  49.623673160808  -0.107686846763214 49.5540884114114 -0.109007417743096 

82               0.00649858547704947 -101.671298698203 0.983497596951861 -118.960169215824 0.983497596956787 -118.96016921582 0.00654079275753126 -101.941615592473 
! Gamma  !      10.8186090790829 4101.16378972928 10.3590885091016 4100.90270544858 
! Port Impedance  49.6211560142749 -0.107480695162512 49.5516405039745 -0.108797577360205 

82.35            0.00643329306584183 -102.083877742816 0.98346720863405 -119.489403152674 0.983467208638937 -119.489403152669 0.00647908577490262 -102.378529708851 
! Gamma  !      10.8422811973731 4119.51589607347 10.3814643016385 4119.25334498168 
! Port Impedance  49.6187224140955 -0.107277088659133 49.5493061082331 -0.108588732076516 

82.7             0.00636697326080276 -102.440087242215 0.983436657673574 -120.018955941481 0.983436657678414 -120.018955941477 0.0064162089204781 -102.757327026555 
! Gamma  !      10.8658821354345 4137.87889092731 10.4037742809564 4137.61485859435 
! Port Impedance  49.616371868634  -0.107076016781909 49.5470825655853 -0.108380983582948 

83.05            0.00630013268743472 -102.738176002923 0.983405937102609 -120.548829544643 0.983405937107394 -120.548829544638 0.00635271900550733 -103.076321144561 
! Gamma  !      10.8894106973807 4156.25281393976 10.4260173287919 4155.98728599865 
! Port Impedance  49.6141038895771 -0.106877468743978 49.5449673092853 -0.108174426365394 

83.4             0.00623327972231631 -102.976775332718 0.98337503976425 -121.079025921381 0.983375039768972 -121.079025921376 0.00628917218903198 -103.334282467471 
! Gamma  !      10.9128657060706 4174.63770468094 10.4481923445155 4174.37066682791 
! Port Impedance  49.6119179919674 -0.106681433458127 49.5429578605476 -0.107969148166577 

83.75            0.00616691871478463 -103.154922469296 0.983343958310138 -121.609547027469 0.983343958314791 -121.609547027465 0.00622611679806825 -103.530458124672 
! Gamma  !      10.9362460035083 4193.03360264083 10.4702982455084 4192.76504063548 
! Port Impedance  49.6098136942344 -0.106487899551644 49.5410518248468 -0.107765230416833 

84.1             0.00610154457888941 -103.272079194426 0.983312685198088 -122.140394814951 0.983312685202664 -122.140394814946 0.00616408673989743 -103.664584661367 
! Gamma  !      10.9595504512472 4211.44054722808 10.4923339675419 4211.1704468935  
! Port Impedance  49.6077905182232 -0.106296855380686 49.5392468884026 -0.107562748636104 

84.45            0.0060376378440439 -103.328145237732 0.983281212689704 -122.671571231853 0.983281212694198 -122.671571231848 0.00610359562443618 -103.736893272642 
! Gamma  !      10.9827779307975 4229.85857776872 10.5142984651612 4229.58692499168 
! Port Impedance  49.6058479892202 -0.106108289044199 49.5375408148389 -0.107361772809206 

84.8             0.00597566022927091 -103.32346611005 0.983249532848003 -123.203078221896 0.983249532852407 -123.203078221892 0.00604513167672318 -103.748107471191 
! Gamma  !      11.0059273440375 4248.28773350494 10.5361907120717 4248.01451423604 
! Port Impedance  49.6039856359778 -0.105922188397384 49.5359314420067 -0.107162367736289 

85.15            0.00591605078374959 -103.258835047371 0.983217637535026 -123.734917724204 0.983217637539333 -123.734917724199 0.00598915348415406 -103.69943319782 
! Gamma  !      11.0289976136283 4266.7280535938  10.5580097015295 4266.45325384769 
! Port Impedance  49.6022029907361 -0.105738541064717 49.5344166789619 -0.106964593360276 

85.5             0.00585922261656496 -103.135488799825 0.983185518409452 -124.267091672999 0.983185518413657 -124.267091672994 0.00593608659187002 -103.592541506664 
! Gamma  !      11.0519876834327 4285.17957710603 10.5797544467352 4284.90318296157 
! Port Impedance  49.6004995892432 -0.10555733445256 49.532994503089  -0.106768505072894 

85.85            0.00580556022178262 -102.955097072928 0.983153166924213 -124.799601997305 0.983153166928309 -124.799601997301 0.00588632093360538 -103.429544088582 
! Gamma  !      11.0748965189376 4303.64234302471 10.6014239812311 4303.36434062525 
! Port Impedance  49.5988749707732 -0.105378555761345 49.5316629573635 -0.106574154000808 

86.2             0.00575541739144619 -102.719745526237 0.983120574324105 -125.332450620641 0.983120574328087 -125.332450620636 0.00584020906462524 -103.212962038932 
! Gamma  !      11.0977231076801 4322.1163902441  10.6230173593022 4321.83676579765 
! Port Impedance  49.5973286781421 -0.105202191997359 49.5304201477433 -0.106381587273257 

86.55            0.00570911569871206 -102.431912360965 0.983087731643403 -125.865639460705 0.983087731647265 -125.8656394607  0.00579806514792592 -102.945688429469 
! Gamma  !      11.1204664596777 4340.6017575683  10.6445336563806 4340.32049734781 
! Port Impedance  49.5958602577226 -0.105028229984145 49.5292642406842 -0.106190848272469 

86.9             0.00566694352571929 -102.094438682989 0.983054629703469 -126.399170429062 0.983054629707206 -126.399170429058 0.00576016463405037 -102.630945404281 
! Gamma  !      11.1431256078619 4359.09848371006 10.6659719694539 4358.81557405366 
! Port Impedance  49.5944692594567 -0.10485665637351 49.528193460772  -0.106001976868054 

87.25            0.00562915560540695 -101.710493007007 0.983021259110377 -126.933045430826 0.983021259113984 -126.933045430822 0.00572674456791566 -102.272236679107 
! Gamma  !      11.1656996085164 4377.60660728947 10.6873314174768 4377.32203460077 
! Port Impedance  49.5931552368666 -0.104687457656175 49.5272060884633 -0.105815009636458 

87.6             0.00559597304273909 -101.283530463125 0.982987610252526 -127.467266364332 0.982987610255997 -127.467266364327 0.00569800445212669 -101.873296471663 
! Gamma  !      11.1881875417185 4396.12616683273 10.7086111417866 4395.83991758104 
! Port Impedance  49.5919177470642 -0.104520620172059 49.5263004579324 -0.105629980066516 

87.95            0.00556758377810808 -100.817247466843 0.982953673298264 -128.001835120808 0.982953673301595 -128.001835120803 0.00567410759458797 -101.43803601573 
! Gamma  !      11.2105885117848 4414.65720077089 10.7298103065228 4414.36926149155 
! Port Impedance  49.590756350759  -0.104356130120216 49.5254749550152 -0.105446918752036 

88.3             0.00554414345359019 -100.315532802823 0.982919438193513 -128.536753584044 0.982919438196701 -128.53675358404 0.00565518286818215 -100.970488901716 
! Gamma  !      11.2329016477208 4433.19974743854 10.7509280990497 4432.91010473323 
! Port Impedance  49.5896706122643 -0.104193973568428 49.5247280152474 -0.105265853572292 

88.65            0.00552577664089229 -99.7824162358974 0.982884894659406 -129.072023630053 0.982884894662445 -129.07202363005 0.00564132681138868 -100.47475653072 
! Gamma  !      11.2551261036747 4451.75384507258 10.7719637303833 4451.46248560961 
! Port Impedance  49.5886600995024 -0.104034136462482 49.524058121991  -0.105086809861229 

89               0.00551257838809126 -99.2220158846961 0.982850032189918 -129.607647126731 0.982850032192805 -129.607647126727 0.00563260600066844 -99.9549549605193 
! Gamma  !      11.2772610593947 4470.31953181096 10.792916435622  4470.02644232558 
! Port Impedance  49.5877243840079 -0.103876604635105 49.523463804645  -0.104909810566145 

89.35            0.00550461604061604 -98.6384856613332 0.982814840049518 -130.143625933506 0.982814840052249 -130.143625933502 0.00562905962808348 -99.4151643573588 
! Gamma  !      11.299305720691  4488.89684569133 10.8137854743808 4488.60201298612 
! Port Impedance  49.5868630409303 -0.103721363814608 49.5229436369347 -0.104734876396538 

89.7             0.00550193129047172 -98.035964086664 0.982779307270815 -130.679961900992 0.982779307273388 -130.679961900988 0.00563070222090335 -98.8593821489393 
! Gamma  !      11.3212593199015 4507.48582464987 10.8345701312298 4507.18923559499 
! Port Impedance  49.5860756490347 -0.103568399633218 49.5224962352776 -0.104562025963763 

90.05            0.00550454240665391 -97.4185257318036 0.982743422652228 -131.21665687063 0.982743422654639 -131.216656870627 0.0056375264438745 -98.2914808082229 
! Gamma  !      11.3431211163616 4526.0865065199  10.8552697161361 4525.78814805353 
! Port Impedance  49.5853617907018 -0.103417697635115 49.5221202572206 -0.104391275912114 

90.4             0.00551244659928027 -96.7901364158409 0.982707174755649 -131.753712674331 0.982707174757896 -131.753712674328 0.00564950592940851 -97.7151709953754 
! Gamma  !      11.3648903968785 4544.69892903066 10.8758835649103 4544.39878815931 
! Port Impedance  49.5847210519264 -0.103269243284191 49.5218143999443 -0.104222641041876 

90.75            0.00552562247038708 -96.1546131154518 0.982670551904131 -132.291131134109 0.982670551906211 -132.291131134106 0.00566659808616918 -97.1339705599258 
! Gamma  !      11.3865664762093 4563.32312980601 10.8964110396562 4563.02119360489 
! Port Impedance  49.5841530223148 -0.103123021971526 49.5215773988333 -0.104056134424872 

91.1             0.00554403250575855 -95.515589327325 0.982633542179579 -132.828914061714 0.98263354218149 -132.828914061711 0.0056887468423471 -96.5511796718462 
! Gamma  !      11.4081486975435 4581.95914636309 10.9168515292248 4581.65540197653 
! Port Impedance  49.5836572950816 -0.102979019022599 49.521408026107  -0.103891767512997 

91.45            0.0055676255646447 -94.8764863847819 0.98259613342046 -133.367063258256 0.982596133422201 -133.367063258254 0.00571588528619184 -95.9698621232712 
! Gamma  !      11.4296364329895 4600.60701611109 10.9372044496726 4600.30145075288 
! Port Impedance  49.5832334670448 -0.102837219704236 49.5213050895085 -0.103729550240174 

91.8             0.00559633932775463 -94.2404909826027 0.98255831321952 -133.905580513829 0.982558313221088 -133.905580513827 0.00574793817296465 -95.3928326347943 
! Gamma  !      11.4510290840659 4619.2667763499  10.9574692447233 4618.95937730369 
! Port Impedance  49.5828811386202 -0.102697609231308 49.5212674310495 -0.103569491118162 

92.15            0.00563010266836726 -93.6105389250808 0.982520068921521 -134.444467607128 0.982520068922918 -134.444467607125 0.005784824274181 -94.8226498217658 
! Gamma  !      11.4723260821968 4637.93846426882 10.9776453862344 4637.62921888853 
! Port Impedance  49.5825999138151 -0.10256017277318 49.5212939258081 -0.103411597326605 

92.5             0.00566883791658628 -92.9893048956556 0.982481387620996 -134.983726305059 0.982481387622219 -134.983726305057 0.00582645855162392 -94.2616143334882 
! Gamma  !      11.4935268892109 4656.62211694521 10.9977323746667 4656.31101265546 
! Port Impedance  49.5823894002208 -0.102424895459927 49.5213834807755 -0.103255874797678 

92.85            0.00571246299243446 -92.3791978627963 0.982442256160012 -135.523358362351 0.982442256161061 -135.52335836235 0.00587275414491771 -93.7117715749161 
! Gamma  !      11.514630997846  4675.31777134324 11.0177297395594 4675.00479563973 
! Port Impedance  49.5822492090043 -0.10229176238831 49.5215350337522 -0.103102328295685 

93.2             0.00576089338936575 -91.7823615928904 0.982402661125961 -136.063365521159 0.982402661126836 -136.063365521158 0.00592362416727788 -93.1749183564112 
! Gamma  !      11.535637932257  4694.02546431252 11.037637040008  4693.71060476247 
! Port Impedance  49.582178954899  -0.102160758627538 49.5217475522883 -0.102950961491906 

93.55            0.00581404399560708 -91.2006796395986 0.982362588849365 -136.603749510659 0.982362588850067 -136.603749510657 0.00597898330925173 -92.6526127896314 
! Gamma  !      11.5565472485289 4712.74523258676 11.0574538651471 4712.42847682934 
! Port Impedance  49.5821782561955 -0.102031869224808 49.5220200326675 -0.102801777035003 

93.9             0.00587183074628821 -90.6357841198378 0.982322025401704 -137.144512046646 0.982322025402233 -137.144512046645 0.00603874925473492 -92.1461867520862 
! Gamma  !      11.5773585351939 4731.47711278249 11.0771798346375 4731.15844852925 
! Port Impedance  49.58224673473   -0.101905079210629 49.5223514989327 -0.102654776617253 

94.25            0.00593417210438358 -90.0890675657511 0.982280956593267 -137.685654831124 0.982280956593624 -137.685654831123 0.00610284391724075 -91.6567602734365 
! Gamma  !      11.5980714137531 4750.22114139766 11.0968145991569 4749.90055643299 
! Port Impedance  49.5823840158739 -0.101780373603956 49.5227410019505 -0.102509961036868 

94.6             0.00600099037293373 -89.561697154236 0.982239367971018 -138.227179551888 0.982239367971205 -138.227179551888 0.006171194507302 -91.1852572468848 
! Gamma  !      11.6186855392027 4768.97735481033 11.1163578408954 4768.65483699189 
! Port Impedance  49.5825897285208 -0.101657737417106 49.5231876185131 -0.102367330256641 

94.95            0.00607221284475008 -89.0546306542187 0.982197244816501 -138.76908788211 0.982197244816521 -138.769087882109 0.00624373444402922 -90.7324219327382 
! Gamma  !      11.6392006005648 4787.74578927734 11.1358092740551 4787.42132653652 
! Port Impedance  49.5828635050749 -0.101537155660502 49.5236904504766 -0.102226883459144 

95.3             0.00614777279880111 -88.5686334898746 0.982154572143759 -139.311381479908 0.982154572143612 -139.311381479908 0.00632040412529465 -90.2988357926985 
! Gamma  !      11.6596163214226 4806.52648093288 11.1551686453543 4806.20006127526 
! Port Impedance  49.5832049814368 -0.101418613347214 49.5242486239325 -0.102088619098681 

95.65            0.00622761035474196 -88.1042963886855 0.982111334697279 -139.854061987924 0.982111334696969 -139.854061987924 0.00640115157183668 -89.8849342677235 
! Gamma  !      11.6799324604605 4825.31946578722 11.1744357345354 4824.99107729304 
! Port Impedance  49.5836137969901 -0.101302095497332 49.5248612884124 -0.101952534950209 

96               0.00631167319862784 -87.6620531605478 0.982067516949978 -140.397131032886 0.982067516949508 -140.397131032886 0.00648593296087937 -89.4910231854777 
! Gamma  !      11.7001488120086 4844.12477972527 11.1936103548778 4843.79441054989 
! Port Impedance  49.5840895945869 -0.101187587142155 49.5255276161232 -0.101818628155388 

96.35            0.00639991719381738 -87.2421982330522 0.982023103101207 -140.940590225174 0.982023103100581 -140.940590225174 0.00657471306473064 -89.1172945524744 
! Gamma  !      11.7202652065917 4862.94245850525 11.2126923537147 4862.61009687963 
! Port Impedance  49.5846320205325 -0.101075073328217 49.526246801213  -0.101686895265952 

96.7             0.00649230689150976 -86.8449036445764 0.981978077074788 -141.484441158376 0.981978077074009 -141.484441158377 0.00666746560935739 -88.7638415489928 
! Gamma  !      11.7402815114833 4881.77253775726 11.2316816129551 4881.43817198845 
! Port Impedance  49.5852407245706 -0.100964539121144 49.5270180590638 -0.101557332284543 

97.05            0.00658881595536337 -86.4702352680906 0.981932422517089 -142.028685408841 0.981932422516163 -142.028685408842 0.00676417356722406 -88.4306726005105 
! Gamma  !      11.7601976312644 4900.61505298197 11.2505780496093 4900.27867145357 
! Port Impedance  49.5859153598664 -0.100855969609356 49.5278406256125 -0.101429934703181 

97.4             0.00668942751430665 -86.1181681026694 0.981886122795128 -142.573324535229 0.981886122794058 -142.57332453523 0.0068648293978025 -88.1177244471938 
! Gamma  !      11.7800135083866 4919.47003954913 11.2693816163197 4919.13163072181 
! Port Impedance  49.5866555829913 -0.100749349907611 49.5287137566972 -0.101304697539488 

97.75            0.00679413445706073 -85.788600525618 0.981839160994714 -143.118360078055 0.981839160993507 -143.118360078056 0.00696943524818415 -87.8248741729124 
! Gamma  !      11.7997291237403 4938.33753269625 11.2880923018952 4937.99708510821 
! Port Impedance  49.587461053905  -0.100644665160404 49.5296367274286 -0.101181615370813 

98.1             0.00690293968112797 -85.4813674454745 0.981791519918628 -143.663793559227 0.981791519917289 -143.663793559229 0.00707800312520663 -87.5519501876669 
! Gamma  !      11.8193444972278 4957.21756752716 11.3067101318515 4956.87506979465 
! Port Impedance  49.5883314359391 -0.100541900545216 49.5306088315843 -0.101060682366379 

98.45            0.00701585630812913 -85.1962523351329 0.981743182084834 -144.209626481584 0.981743182083371 -144.209626481586 0.00719055504949207 -87.2987421828382 
! Gamma  !      11.8388596883409 4976.11017901058 11.3252351689545 4975.76561982838 
! Port Impedance  49.5892663957789 -0.100441041275631 49.5316293810268 -0.100941892317565 

98.8             0.00713290787644986 -84.9329981554471 0.981694129724745 -144.755860328426 0.981694129723162 -144.755860328428 0.00730712320081842 -87.0650100980731 
! Gamma  !      11.8582747967436 4995.01540197872 11.3436675137695 4994.66877012067 
! Port Impedance  49.590265603446  -0.100342072604306 49.5326977051419 -0.100825238666429 

99.15            0.00725412852123335 -84.6913172037024 0.98164434478151 -145.30249656304 0.981644344779816 -145.302496563042 0.00742775006333375 -86.8504921527268 
! Gamma  !      11.8775899628598 5013.93327112585 11.362007305214  5013.58455544533 
! Port Impedance  49.5913287322792 -0.100244979825825 49.5338131502992 -0.100710714532592 

99.5             0.00737956315086242 -84.4708999391403 0.981593808908369 -145.849536628221 0.981593808906571 -145.849536628223 0.00755248857829524 -86.6549120044329 
! Gamma  !      11.8968053684655 5032.86382100687 11.3802547211161 5032.51301043731 
! Port Impedance  49.5924554589167 -0.100149748279411 49.5349750793308 -0.100598312738547 

99.85            0.00750926762823975 -84.2714228502285 0.981542503467029 -146.396981945793 0.981542503465136 -146.396981945796 0.00768140231128031 -86.4779851033615 
! Gamma  !      11.9159212372865 5051.80708603583 11.3984099787771 5051.45416959123 
! Port Impedance  49.5936454632768 -0.100056363351525 49.5361828710308 -0.10048802583352 

100.2            0.00764330896441653 -84.092555436474 0.981490409526105 -146.94483391612 0.981490409524126 -146.944833916123 0.00781456564018435 -86.3194243137904 
! Gamma  !      11.9349378356008 5070.76310048452 11.4164733355387 5070.40806725997 
! Port Impedance  49.5948984285385 -0.0999648104783432 49.5374359196711 -0.10037984611594 

100.55           0.00778176553145019 -83.9339663821338 0.981437507859598 -147.493093917615 0.981437507857541 -147.493093917618 0.00795206396978952 -86.1789448753939 
! Gamma  !      11.9538554728457 5089.73189848099 11.4344450893552 5089.37473765318 
! Port Impedance  49.5962140411223 -0.0998750751481172 49.5387336345364 -0.100273765654604 

100.9            0.00792472730079623 -83.7953290009371 0.981383778945428 -148.041763306248 0.981383778943304 -148.041763306251 0.00809399397826226 -86.0562687757237 
! Gamma  !      11.9726745022308 5108.71351400809 11.4523255793705 5108.35421483583 
! Port Impedance  49.5975919906708 -0.0997871429034275 49.5400754394744 -0.100169776308624 

101.25           0.00807229611306301 -83.6763260305664 0.98132920296402 -148.590843415041 0.981329202961838 -148.590843415044 0.00824046390061116 -85.9511286031842 
! Gamma  !      11.9913953213554 5127.70798090201 11.4701151864997 5127.34653272674 
! Port Impedance  49.5990319700279 -0.0997009993433253 49.5414607724628 -0.100067869746208 

101.6            0.00822458598457849 -83.5766538537257 0.981273759796934 -149.14033555357 0.981273759794707 -149.140335553574 0.00839159385390799 -85.8632709467908 
! Gamma  !      12.0100183728308 5146.71533285076 11.4878143340157 5146.35172509708 
! Port Impedance  49.6005336752196 -0.099616630125372 49.5428890851918 -0.0999680374623537 

101.95           0.00838172345593351 -83.4960262196128 0.981217429025568 -149.690241007455 0.981217429023306 -149.69024100746 0.00854751620893865 -85.7924594054624 
! Gamma  !      12.0285441449088 5165.73560339272 11.5054234881404 5165.36982556892 
! Port Impedance  49.6020968054331 -0.0995340209675783 49.5443598426607 -0.0998702707955125 

102.3            0.00854384798747428 -83.4341775359191 0.981160189929897 -150.240561037849 0.981160189927612 -150.240561037853 0.00870837601290378 -85.7384772657972 
! Gamma  !      12.046973172114  5184.76882591512 11.5229431586414 5184.40086761369 
! Port Impedance  49.6037210629967 -0.0994531576502451 49.5458725227888 -0.0997745609432818 

102.65           0.0087111124066102 -83.3908657973982 0.981102021487288 -150.79129688092 0.981102021484993 -150.791296880924 0.00887433146782483 -85.7011299034163 
! Gamma  !      12.0653060358825 5203.81503365254 11.5403738994326 5203.4448845507  
! Port Impedance  49.6054061533585 -0.0993740260177112 49.5474266160402 -0.09968089897718 

103              0.00888368341177965 -83.3658752128327 0.981042902371367 -151.342449747334 0.981042902369074 -151.342449747338 0.00904555446942882 -85.6802469591773 
! Gamma  !      12.0835433652049 5222.87425968539 11.5577163091808 5222.50190954562 
! Port Impedance  49.6071517850664 -0.0992966119800098 49.5490216250613 -0.0995892758565589 

103.35           0.00906174213796815 -83.3590185880656 0.980982810950947 -151.89402082173 0.980982810948672 -151.894020821735 0.00922223121147701 -85.6756843379923 
! Gamma  !      12.1016858372754 5241.94653693839 11.5749710319166 5241.57197560898 
! Port Impedance  49.6089576697468 -0.099220901514437 49.5506570643306 -0.0994996824416989 

103.7            0.00924548478879629 -83.3701395188042 0.98092172528903 -152.446011262193 0.980921725286786 -152.446011262199 0.00940456286076898 -85.6873260746985 
! Gamma  !      12.1197341781453 5261.03189817905 11.5921387576506 5260.65511559459 
! Port Impedance  49.6108235220832 -0.0991468806670361 49.5523324598209 -0.0994121095061345 

104.05           0.00943512334038209 -83.3991144432409 0.980859623141865 -152.998422199723 0.980859623139666 -152.998422199728 0.00959276630838862 -85.7150861084996 
! Gamma  !      12.1376891633826 5280.13037601612 11.6092202229945 5279.75136219804 
! Port Impedance  49.6127490597956 -0.0990745355539987 49.5540473486728 -0.0993265477482517 

104.4            0.00963088632242917 -83.4458546012565 0.980796481958077 -153.551254737697 0.98079648195594 -153.551254737702 0.00978707500316185 -85.7589100049577 
! Gamma  !      12.1555516187362 5299.24200289804 11.626216211787  5298.86074795513 
! Port Impedance  49.614734003619  -0.0990038523629882 49.555801278879  -0.0992429878022005 
