! Touchstone file from project reactangularAPerture
! Exported from HFSS 11.1
!Data is not renormalized
# GHZ S MA
! Modal data exported
! Port[1] = WavePort1:1
5.000000000000000E+02 1.980929748548814E-01 -7.512776572697453E+01 
! Gamma  0.000000000000000E+00 6.467109117238500E+03 
! Port Impedance  3.763664694078020E+02 0.000000000000000E+00 

5.006250000000000E+02 1.983905753526458E-01 -7.508690364197390E+01 
! Gamma  0.000000000000000E+00 6.488313133330200E+03 
! Port Impedance  3.756053154522520E+02 0.000000000000000E+00 

5.012500000000000E+02 1.986852243177610E-01 -7.504783851001622E+01 
! Gamma  0.000000000000000E+00 6.509474438636920E+03 
! Port Impedance  3.748515802940480E+02 0.000000000000000E+00 

5.018750000000000E+02 1.989769287559445E-01 -7.501053918370741E+01 
! Gamma  0.000000000000000E+00 6.530593448350340E+03 
! Port Impedance  3.741051543046540E+02 0.000000000000000E+00 

5.025000000000000E+02 1.992656958420288E-01 -7.497497522059129E+01 
! Gamma  0.000000000000000E+00 6.551670571484180E+03 
! Port Impedance  3.733659272240040E+02 0.000000000000000E+00 

5.031250000000000E+02 1.995515329048028E-01 -7.494111686240559E+01 
! Gamma  0.000000000000000E+00 6.572706210999680E+03 
! Port Impedance  3.726337954477960E+02 0.000000000000000E+00 

5.037500000000000E+02 1.998344474129112E-01 -7.490893501508852E+01 
! Gamma  0.000000000000000E+00 6.593700763927830E+03 
! Port Impedance  3.719086518745180E+02 0.000000000000000E+00 

5.043750000000000E+02 2.001144469616295E-01 -7.487840122940926E+01 
! Gamma  0.000000000000000E+00 6.614654621488380E+03 
! Port Impedance  3.711903974100550E+02 0.000000000000000E+00 

5.050000000000000E+02 2.003915392604475E-01 -7.484948768223589E+01 
! Gamma  0.000000000000000E+00 6.635568169205950E+03 
! Port Impedance  3.704789289526530E+02 0.000000000000000E+00 

5.056250000000000E+02 2.006657321215532E-01 -7.482216715843502E+01 
! Gamma  0.000000000000000E+00 6.656441787023120E+03 
! Port Impedance  3.697741507330010E+02 0.000000000000000E+00 

5.062500000000000E+02 2.009370334488902E-01 -7.479641303331289E+01 
! Gamma  0.000000000000000E+00 6.677275849410630E+03 
! Port Impedance  3.690759659809140E+02 0.000000000000000E+00 

5.068750000000000E+02 2.012054512281306E-01 -7.477219925569790E+01 
! Gamma  0.000000000000000E+00 6.698070725474900E+03 
! Port Impedance  3.683842799533820E+02 0.000000000000000E+00 

5.075000000000000E+02 2.014709935172014E-01 -7.474950033150212E+01 
! Gamma  0.000000000000000E+00 6.718826779062830E+03 
! Port Impedance  3.676990006643170E+02 0.000000000000000E+00 

5.081250000000000E+02 2.017336684374548E-01 -7.472829130785411E+01 
! Gamma  0.000000000000000E+00 6.739544368864000E+03 
! Port Impedance  3.670200385768370E+02 0.000000000000000E+00 

5.087500000000000E+02 2.019934841655328E-01 -7.470854775774870E+01 
! Gamma  0.000000000000000E+00 6.760223848510310E+03 
! Port Impedance  3.663473038974510E+02 0.000000000000000E+00 

5.093750000000000E+02 2.022504489256802E-01 -7.469024576515663E+01 
! Gamma  0.000000000000000E+00 6.780865566673270E+03 
! Port Impedance  3.656807086914750E+02 0.000000000000000E+00 

5.100000000000000E+02 2.025045709826679E-01 -7.467336191064092E+01 
! Gamma  0.000000000000000E+00 6.801469867158820E+03 
! Port Impedance  3.650201687725230E+02 0.000000000000000E+00 

5.106250000000000E+02 2.027558586352064E-01 -7.465787325741881E+01 
! Gamma  0.000000000000000E+00 6.822037088999900E+03 
! Port Impedance  3.643655994934210E+02 0.000000000000000E+00 

5.112500000000000E+02 2.030043202098573E-01 -7.464375733788263E+01 
! Gamma  0.000000000000000E+00 6.842567566546760E+03 
! Port Impedance  3.637169199747150E+02 0.000000000000000E+00 

5.118750000000000E+02 2.032499640553532E-01 -7.463099214052730E+01 
! Gamma  0.000000000000000E+00 6.863061629555110E+03 
! Port Impedance  3.630740477619640E+02 0.000000000000000E+00 

5.125000000000000E+02 2.034927985373899E-01 -7.461955609731284E+01 
! Gamma  0.000000000000000E+00 6.883519603272150E+03 
! Port Impedance  3.624369046206620E+02 0.000000000000000E+00 

5.131250000000000E+02 2.037328320338460E-01 -7.460942807142165E+01 
! Gamma  0.000000000000000E+00 6.903941808520640E+03 
! Port Impedance  3.618054125936280E+02 0.000000000000000E+00 

5.137500000000000E+02 2.039700729302883E-01 -7.460058734540056E+01 
! Gamma  0.000000000000000E+00 6.924328561780760E+03 
! Port Impedance  3.611794949024500E+02 0.000000000000000E+00 

5.143750000000000E+02 2.042045296158802E-01 -7.459301360964803E+01 
! Gamma  0.000000000000000E+00 6.944680175270350E+03 
! Port Impedance  3.605590777093910E+02 0.000000000000000E+00 

5.150000000000000E+02 2.044362104797469E-01 -7.458668695132832E+01 
! Gamma  0.000000000000000E+00 6.964996957023010E+03 
! Port Impedance  3.599440862238160E+02 0.000000000000000E+00 

5.156250000000000E+02 2.046651239074934E-01 -7.458158784357521E+01 
! Gamma  0.000000000000000E+00 6.985279210964520E+03 
! Port Impedance  3.593344487444060E+02 0.000000000000000E+00 

5.162500000000000E+02 2.048912782780355E-01 -7.457769713503222E+01 
! Gamma  0.000000000000000E+00 7.005527236987440E+03 
! Port Impedance  3.587300949122820E+02 0.000000000000000E+00 

5.168750000000000E+02 2.051146819609454E-01 -7.457499603977020E+01 
! Gamma  0.000000000000000E+00 7.025741331024040E+03 
! Port Impedance  3.581309543313450E+02 0.000000000000000E+00 

5.175000000000000E+02 2.053353433136667E-01 -7.457346612744495E+01 
! Gamma  0.000000000000000E+00 7.045921785117440E+03 
! Port Impedance  3.575369599409670E+02 0.000000000000000E+00 

5.181250000000000E+02 2.055532706794213E-01 -7.457308931382987E+01 
! Gamma  0.000000000000000E+00 7.066068887491260E+03 
! Port Impedance  3.569480428474520E+02 0.000000000000000E+00 

5.187500000000000E+02 2.057684723850273E-01 -7.457384785158186E+01 
! Gamma  0.000000000000000E+00 7.086182922617670E+03 
! Port Impedance  3.563641384212450E+02 0.000000000000000E+00 

5.193750000000000E+02 2.059809567391273E-01 -7.457572432133676E+01 
! Gamma  0.000000000000000E+00 7.106264171283740E+03 
! Port Impedance  3.557851810645090E+02 0.000000000000000E+00 

5.200000000000000E+02 2.061907320304487E-01 -7.457870162302969E+01 
! Gamma  0.000000000000000E+00 7.126312910656550E+03 
! Port Impedance  3.552111078482740E+02 0.000000000000000E+00 

5.206250000000000E+02 2.063978065265252E-01 -7.458276296753263E+01 
! Gamma  0.000000000000000E+00 7.146329414346650E+03 
! Port Impedance  3.546418556983360E+02 0.000000000000000E+00 

5.212500000000000E+02 2.066021884724216E-01 -7.458789186851153E+01 
! Gamma  0.000000000000000E+00 7.166313952470160E+03 
! Port Impedance  3.540773636099010E+02 0.000000000000000E+00 

5.218750000000000E+02 2.068038860895726E-01 -7.459407213453589E+01 
! Gamma  0.000000000000000E+00 7.186266791709560E+03 
! Port Impedance  3.535175703111370E+02 0.000000000000000E+00 

5.225000000000000E+02 2.070029075750504E-01 -7.460128786144422E+01 
! Gamma  0.000000000000000E+00 7.206188195372990E+03 
! Port Impedance  3.529624176053540E+02 0.000000000000000E+00 

5.231250000000000E+02 2.071992611006783E-01 -7.460952342490478E+01 
! Gamma  0.000000000000000E+00 7.226078423452470E+03 
! Port Impedance  3.524118470781750E+02 0.000000000000000E+00 

5.237500000000000E+02 2.073929548125729E-01 -7.461876347325327E+01 
! Gamma  0.000000000000000E+00 7.245937732680550E+03 
! Port Impedance  3.518658007376410E+02 0.000000000000000E+00 

5.243750000000000E+02 2.075839968305884E-01 -7.462899292048407E+01 
! Gamma  0.000000000000000E+00 7.265766376586100E+03 
! Port Impedance  3.513242225220530E+02 0.000000000000000E+00 

5.250000000000000E+02 2.077723952481074E-01 -7.464019693951067E+01 
! Gamma  0.000000000000000E+00 7.285564605548490E+03 
! Port Impedance  3.507870572462020E+02 0.000000000000000E+00 

5.256250000000000E+02 2.079581581316932E-01 -7.465236095557084E+01 
! Gamma  0.000000000000000E+00 7.305332666850930E+03 
! Port Impedance  3.502542502269490E+02 0.000000000000000E+00 

5.262500000000000E+02 2.081412935211875E-01 -7.466547063988652E+01 
! Gamma  0.000000000000000E+00 7.325070804732490E+03 
! Port Impedance  3.497257481581230E+02 0.000000000000000E+00 

5.268750000000000E+02 2.083218094295710E-01 -7.467951190345525E+01 
! Gamma  0.000000000000000E+00 7.344779260439070E+03 
! Port Impedance  3.492014981971480E+02 0.000000000000000E+00 

5.275000000000000E+02 2.084997138432241E-01 -7.469447089106713E+01 
! Gamma  0.000000000000000E+00 7.364458272273250E+03 
! Port Impedance  3.486814484628750E+02 0.000000000000000E+00 

5.281250000000000E+02 2.086750147220316E-01 -7.471033397548096E+01 
! Gamma  0.000000000000000E+00 7.384108075643160E+03 
! Port Impedance  3.481655485243160E+02 0.000000000000000E+00 

5.287500000000000E+02 2.088477199997508E-01 -7.472708775176795E+01 
! Gamma  0.000000000000000E+00 7.403728903110230E+03 
! Port Impedance  3.476537478121430E+02 0.000000000000000E+00 

5.293750000000000E+02 2.090178375843458E-01 -7.474471903183225E+01 
! Gamma  0.000000000000000E+00 7.423320984435980E+03 
! Port Impedance  3.471459977021460E+02 0.000000000000000E+00 

5.300000000000000E+02 2.091853753586135E-01 -7.476321483910391E+01 
! Gamma  0.000000000000000E+00 7.442884546627860E+03 
! Port Impedance  3.466422484694780E+02 0.000000000000000E+00 

5.306250000000000E+02 2.093503411804505E-01 -7.478256240333593E+01 
! Gamma  0.000000000000000E+00 7.462419813984120E+03 
! Port Impedance  3.461424542470140E+02 0.000000000000000E+00 

5.312500000000000E+02 2.095127428836366E-01 -7.480274915562244E+01 
! Gamma  0.000000000000000E+00 7.481927008137690E+03 
! Port Impedance  3.456465664808520E+02 0.000000000000000E+00 

5.318750000000000E+02 2.096725882784898E-01 -7.482376272351395E+01 
! Gamma  0.000000000000000E+00 7.501406348099290E+03 
! Port Impedance  3.451545401665750E+02 0.000000000000000E+00 

5.325000000000000E+02 2.098298851525099E-01 -7.484559092628892E+01 
! Gamma  0.000000000000000E+00 7.520858050299500E+03 
! Port Impedance  3.446663295673670E+02 0.000000000000000E+00 

5.331250000000000E+02 2.099846412712211E-01 -7.486822177036500E+01 
! Gamma  0.000000000000000E+00 7.540282328630150E+03 
! Port Impedance  3.441818896861620E+02 0.000000000000000E+00 

5.337500000000000E+02 2.101368643788768E-01 -7.489164344484088E+01 
! Gamma  0.000000000000000E+00 7.559679394484650E+03 
! Port Impedance  3.437011772132700E+02 0.000000000000000E+00 

5.343750000000000E+02 2.102865621994887E-01 -7.491584431716792E+01 
! Gamma  0.000000000000000E+00 7.579049456797740E+03 
! Port Impedance  3.432241483328960E+02 0.000000000000000E+00 

5.350000000000000E+02 2.104337424375818E-01 -7.494081292894116E+01 
! Gamma  0.000000000000000E+00 7.598392722084260E+03 
! Port Impedance  3.427507606007760E+02 0.000000000000000E+00 

5.356250000000000E+02 2.105784127791501E-01 -7.496653799181999E+01 
! Gamma  0.000000000000000E+00 7.617709394477220E+03 
! Port Impedance  3.422809720846540E+02 0.000000000000000E+00 

5.362500000000000E+02 2.107205808927790E-01 -7.499300838356449E+01 
! Gamma  0.000000000000000E+00 7.636999675765110E+03 
! Port Impedance  3.418147418115680E+02 0.000000000000000E+00 

5.368750000000000E+02 2.108602544303792E-01 -7.502021314417431E+01 
! Gamma  0.000000000000000E+00 7.656263765428470E+03 
! Port Impedance  3.413520290516640E+02 0.000000000000000E+00 

5.375000000000000E+02 2.109974410285223E-01 -7.504814147216072E+01 
! Gamma  0.000000000000000E+00 7.675501860675700E+03 
! Port Impedance  3.408927934890640E+02 0.000000000000000E+00 

5.381250000000000E+02 2.111321483092479E-01 -7.507678272090003E+01 
! Gamma  0.000000000000000E+00 7.694714156478190E+03 
! Port Impedance  3.404369960831660E+02 0.000000000000000E+00 

5.387500000000000E+02 2.112643838812697E-01 -7.510612639511208E+01 
! Gamma  0.000000000000000E+00 7.713900845604780E+03 
! Port Impedance  3.399845980573050E+02 0.000000000000000E+00 

5.393750000000000E+02 2.113941553410199E-01 -7.513616214742569E+01 
! Gamma  0.000000000000000E+00 7.733062118655510E+03 
! Port Impedance  3.395355610716390E+02 0.000000000000000E+00 

5.400000000000000E+02 2.115214702738142E-01 -7.516687977504664E+01 
! Gamma  0.000000000000000E+00 7.752198164094780E+03 
! Port Impedance  3.390898477726990E+02 0.000000000000000E+00 

5.406250000000000E+02 2.116463362549083E-01 -7.519826921652850E+01 
! Gamma  0.000000000000000E+00 7.771309168283700E+03 
! Port Impedance  3.386474208446740E+02 0.000000000000000E+00 

5.412500000000000E+02 2.117687608506825E-01 -7.523032054861656E+01 
! Gamma  0.000000000000000E+00 7.790395315512100E+03 
! Port Impedance  3.382082441574950E+02 0.000000000000000E+00 

5.418750000000000E+02 2.118887516197790E-01 -7.526302398321064E+01 
! Gamma  0.000000000000000E+00 7.809456788029620E+03 
! Port Impedance  3.377722815630170E+02 0.000000000000000E+00 

5.425000000000000E+02 2.120063161142289E-01 -7.529636986437403E+01 
! Gamma  0.000000000000000E+00 7.828493766076430E+03 
! Port Impedance  3.373394978491710E+02 0.000000000000000E+00 

5.431250000000000E+02 2.121214618806992E-01 -7.533034866547479E+01 
! Gamma  0.000000000000000E+00 7.847506427913250E+03 
! Port Impedance  3.369098580360310E+02 0.000000000000000E+00 

5.437500000000000E+02 2.122341964615308E-01 -7.536495098637016E+01 
! Gamma  0.000000000000000E+00 7.866494949850820E+03 
! Port Impedance  3.364833280227430E+02 0.000000000000000E+00 

5.443750000000000E+02 2.123445273960403E-01 -7.540016755068694E+01 
! Gamma  0.000000000000000E+00 7.885459506278870E+03 
! Port Impedance  3.360598734429860E+02 0.000000000000000E+00 

5.450000000000000E+02 2.124524622215200E-01 -7.543598920318428E+01 
! Gamma  0.000000000000000E+00 7.904400269694450E+03 
! Port Impedance  3.356394616797530E+02 0.000000000000000E+00 

5.456250000000000E+02 2.125580084745934E-01 -7.547240690717555E+01 
! Gamma  0.000000000000000E+00 7.923317410729820E+03 
! Port Impedance  3.352220595015780E+02 0.000000000000000E+00 

5.462500000000000E+02 2.126611736922501E-01 -7.550941174204472E+01 
! Gamma  0.000000000000000E+00 7.942211098179730E+03 
! Port Impedance  3.348076347352760E+02 0.000000000000000E+00 

5.468750000000000E+02 2.127619654129994E-01 -7.554699490081111E+01 
! Gamma  0.000000000000000E+00 7.961081499028320E+03 
! Port Impedance  3.343961552309060E+02 0.000000000000000E+00 

5.475000000000000E+02 2.128603911781032E-01 -7.558514768778274E+01 
! Gamma  0.000000000000000E+00 7.979928778475350E+03 
! Port Impedance  3.339875898633870E+02 0.000000000000000E+00 

5.481250000000000E+02 2.129564585326196E-01 -7.562386151626241E+01 
! Gamma  0.000000000000000E+00 7.998753099962140E+03 
! Port Impedance  3.335819075085310E+02 0.000000000000000E+00 

5.487500000000000E+02 2.130501750266239E-01 -7.566312790633009E+01 
! Gamma  0.000000000000000E+00 8.017554625196840E+03 
! Port Impedance  3.331790777959090E+02 0.000000000000000E+00 

5.493750000000000E+02 2.131415482162397E-01 -7.570293848268302E+01 
! Gamma  0.000000000000000E+00 8.036333514179400E+03 
! Port Impedance  3.327790705025790E+02 0.000000000000000E+00 

5.500000000000000E+02 2.132305856648383E-01 -7.574328497253315E+01 
! Gamma  0.000000000000000E+00 8.055089925226000E+03 
! Port Impedance  3.323818559946250E+02 0.000000000000000E+00 

5.506250000000000E+02 2.133172949440496E-01 -7.578415920357764E+01 
! Gamma  0.000000000000000E+00 8.073824014993050E+03 
! Port Impedance  3.319874051730030E+02 0.000000000000000E+00 

5.512500000000000E+02 2.134016836349132E-01 -7.582555310201698E+01 
! Gamma  0.000000000000000E+00 8.092535938500740E+03 
! Port Impedance  3.315956891335250E+02 0.000000000000000E+00 

5.518750000000000E+02 2.134837593288817E-01 -7.586745869063367E+01 
! Gamma  0.000000000000000E+00 8.111225849156230E+03 
! Port Impedance  3.312066794313370E+02 0.000000000000000E+00 

5.525000000000000E+02 2.135635296289125E-01 -7.590986808692362E+01 
! Gamma  0.000000000000000E+00 8.129893898776350E+03 
! Port Impedance  3.308203481427050E+02 0.000000000000000E+00 

5.531250000000000E+02 2.136410021504665E-01 -7.595277350128546E+01 
! Gamma  0.000000000000000E+00 8.148540237609940E+03 
! Port Impedance  3.304366676176250E+02 0.000000000000000E+00 

5.537500000000000E+02 2.137161845225224E-01 -7.599616723526343E+01 
! Gamma  0.000000000000000E+00 8.167165014359760E+03 
! Port Impedance  3.300556106065200E+02 0.000000000000000E+00 

5.543750000000000E+02 2.137890843885940E-01 -7.604004167982755E+01 
! Gamma  0.000000000000000E+00 8.185768376204060E+03 
! Port Impedance  3.296771502945330E+02 0.000000000000000E+00 

5.550000000000000E+02 2.138597094076378E-01 -7.608438931373017E+01 
! Gamma  0.000000000000000E+00 8.204350468817711E+03 
! Port Impedance  3.293012602084550E+02 0.000000000000000E+00 

5.556250000000000E+02 2.139280672550476E-01 -7.612920270187658E+01 
! Gamma  0.000000000000000E+00 8.222911436393009E+03 
! Port Impedance  3.289279141936140E+02 0.000000000000000E+00 

5.562500000000000E+02 2.139941656235783E-01 -7.617447449376928E+01 
! Gamma  0.000000000000000E+00 8.241451421660089E+03 
! Port Impedance  3.285570865515870E+02 0.000000000000000E+00 

5.568750000000000E+02 2.140580122241557E-01 -7.622019742199683E+01 
! Gamma  0.000000000000000E+00 8.259970565906980E+03 
! Port Impedance  3.281887518511410E+02 0.000000000000000E+00 

5.575000000000000E+02 2.141196147868699E-01 -7.626636430073708E+01 
! Gamma  0.000000000000000E+00 8.278469008999369E+03 
! Port Impedance  3.278228850455410E+02 0.000000000000000E+00 

5.581250000000000E+02 2.141789810617271E-01 -7.631296802434521E+01 
! Gamma  0.000000000000000E+00 8.296946889399900E+03 
! Port Impedance  3.274594614151130E+02 0.000000000000000E+00 

5.587500000000000E+02 2.142361188194997E-01 -7.636000156595532E+01 
! Gamma  0.000000000000000E+00 8.315404344187300E+03 
! Port Impedance  3.270984566021600E+02 0.000000000000000E+00 

5.593750000000000E+02 2.142910358524825E-01 -7.640745797613658E+01 
! Gamma  0.000000000000000E+00 8.333841509075030E+03 
! Port Impedance  3.267398465458060E+02 0.000000000000000E+00 

5.600000000000000E+02 2.143437399753074E-01 -7.645533038157502E+01 
! Gamma  0.000000000000000E+00 8.352258518429700E+03 
! Port Impedance  3.263836075065310E+02 0.000000000000000E+00 

5.606250000000000E+02 2.143942390256324E-01 -7.650361198380655E+01 
! Gamma  0.000000000000000E+00 8.370655505289151E+03 
! Port Impedance  3.260297161080630E+02 0.000000000000000E+00 

5.612500000000000E+02 2.144425408648058E-01 -7.655229605799522E+01 
! Gamma  0.000000000000000E+00 8.389032601380221E+03 
! Port Impedance  3.256781492669840E+02 0.000000000000000E+00 

5.618750000000000E+02 2.144886533786059E-01 -7.660137595171516E+01 
! Gamma  0.000000000000000E+00 8.407389937136220E+03 
! Port Impedance  3.253288840909980E+02 0.000000000000000E+00 

5.625000000000000E+02 2.145325844777823E-01 -7.665084508381275E+01 
! Gamma  0.000000000000000E+00 8.425727641714100E+03 
! Port Impedance  3.249818982093290E+02 0.000000000000000E+00 

5.631250000000000E+02 2.145743420987594E-01 -7.670069694325528E+01 
! Gamma  0.000000000000000E+00 8.444045843011370E+03 
! Port Impedance  3.246371694096710E+02 0.000000000000000E+00 

5.637500000000000E+02 2.146139342041220E-01 -7.675092508805551E+01 
! Gamma  0.000000000000000E+00 8.462344667682610E+03 
! Port Impedance  3.242946757470380E+02 0.000000000000000E+00 

5.643750000000000E+02 2.146513687831429E-01 -7.680152314420718E+01 
! Gamma  0.000000000000000E+00 8.480624241155940E+03 
! Port Impedance  3.239543956729110E+02 0.000000000000000E+00 

5.650000000000000E+02 2.146866538523346E-01 -7.685248480464921E+01 
! Gamma  0.000000000000000E+00 8.498884687648950E+03 
! Port Impedance  3.236163078078480E+02 0.000000000000000E+00 

5.656250000000000E+02 2.147197974558696E-01 -7.690380382826746E+01 
! Gamma  0.000000000000000E+00 8.517126130184550E+03 
! Port Impedance  3.232803911963820E+02 0.000000000000000E+00 

5.662500000000000E+02 2.147508076659821E-01 -7.695547403894005E+01 
! Gamma  0.000000000000000E+00 8.535348690606470E+03 
! Port Impedance  3.229466249107920E+02 0.000000000000000E+00 

5.668750000000000E+02 2.147796925834092E-01 -7.700748932457279E+01 
! Gamma  0.000000000000000E+00 8.553552489594560E+03 
! Port Impedance  3.226149885059100E+02 0.000000000000000E+00 

5.675000000000000E+02 2.148064603376909E-01 -7.705984363620097E+01 
! Gamma  0.000000000000000E+00 8.571737646679790E+03 
! Port Impedance  3.222854618909230E+02 0.000000000000000E+00 

5.681250000000000E+02 2.148311190874919E-01 -7.711253098710851E+01 
! Gamma  0.000000000000000E+00 8.589904280259019E+03 
! Port Impedance  3.219580248572830E+02 0.000000000000000E+00 

5.687500000000000E+02 2.148536770208499E-01 -7.716554545195649E+01 
! Gamma  0.000000000000000E+00 8.608052507609589E+03 
! Port Impedance  3.216326579323260E+02 0.000000000000000E+00 

5.693750000000000E+02 2.148741423554785E-01 -7.721888116594542E+01 
! Gamma  0.000000000000000E+00 8.626182444903530E+03 
! Port Impedance  3.213093413077590E+02 0.000000000000000E+00 

5.700000000000000E+02 2.148925233388571E-01 -7.727253232402445E+01 
! Gamma  0.000000000000000E+00 8.644294207221679E+03 
! Port Impedance  3.209880559035780E+02 0.000000000000000E+00 

5.706250000000000E+02 2.149088282484505E-01 -7.732649318008775E+01 
! Gamma  0.000000000000000E+00 8.662387908567560E+03 
! Port Impedance  3.206687827251480E+02 0.000000000000000E+00 

5.712500000000000E+02 2.149230653917932E-01 -7.738075804621178E+01 
! Gamma  0.000000000000000E+00 8.680463661880920E+03 
! Port Impedance  3.203515032643320E+02 0.000000000000000E+00 

5.718750000000000E+02 2.149352431065555E-01 -7.743532129192539E+01 
! Gamma  0.000000000000000E+00 8.698521579051199E+03 
! Port Impedance  3.200361986109590E+02 0.000000000000000E+00 

5.725000000000000E+02 2.149453697605826E-01 -7.749017734347258E+01 
! Gamma  0.000000000000000E+00 8.716561770930670E+03 
! Port Impedance  3.197228506913730E+02 0.000000000000000E+00 

5.731250000000000E+02 2.149534537518571E-01 -7.754532068312749E+01 
! Gamma  0.000000000000000E+00 8.734584347347471E+03 
! Port Impedance  3.194114415109150E+02 0.000000000000000E+00 

5.737500000000000E+02 2.149595035084857E-01 -7.760074584849454E+01 
! Gamma  0.000000000000000E+00 8.752589417118310E+03 
! Port Impedance  3.191019532040830E+02 0.000000000000000E+00 

5.743750000000000E+02 2.149635274885355E-01 -7.765644743187656E+01 
! Gamma  0.000000000000000E+00 8.770577088061080E+03 
! Port Impedance  3.187943681472930E+02 0.000000000000000E+00 

5.750000000000000E+02 2.149655341799533E-01 -7.771242007958988E+01 
! Gamma  0.000000000000000E+00 8.788547467007220E+03 
! Port Impedance  3.184886688866010E+02 0.000000000000000E+00 

5.756250000000000E+02 2.149655321003494E-01 -7.776865849137553E+01 
! Gamma  0.000000000000000E+00 8.806500659813901E+03 
! Port Impedance  3.181848383506290E+02 0.000000000000000E+00 

5.762500000000000E+02 2.149635297967813E-01 -7.782515741976157E+01 
! Gamma  0.000000000000000E+00 8.824436771376000E+03 
! Port Impedance  3.178828595342160E+02 0.000000000000000E+00 

5.768750000000000E+02 2.149595358454726E-01 -7.788191166948653E+01 
! Gamma  0.000000000000000E+00 8.842355905637911E+03 
! Port Impedance  3.175827155114170E+02 0.000000000000000E+00 

5.775000000000000E+02 2.149535588515305E-01 -7.793891609690040E+01 
! Gamma  0.000000000000000E+00 8.860258165605161E+03 
! Port Impedance  3.172843902583430E+02 0.000000000000000E+00 

5.781250000000000E+02 2.149456074485572E-01 -7.799616560941604E+01 
! Gamma  0.000000000000000E+00 8.878143653355850E+03 
! Port Impedance  3.169878668703400E+02 0.000000000000000E+00 

5.787500000000000E+02 2.149356902982737E-01 -7.805365516495004E+01 
! Gamma  0.000000000000000E+00 8.896012470051921E+03 
! Port Impedance  3.166931295277790E+02 0.000000000000000E+00 

5.793750000000000E+02 2.149238160900775E-01 -7.811137977138077E+01 
! Gamma  0.000000000000000E+00 8.913864715950220E+03 
! Port Impedance  3.164001620303300E+02 0.000000000000000E+00 

5.800000000000000E+02 2.149099935405627E-01 -7.816933448602383E+01 
! Gamma  0.000000000000000E+00 8.931700490413450E+03 
! Port Impedance  3.161089488786330E+02 0.000000000000000E+00 

5.806250000000000E+02 2.148942313929948E-01 -7.822751441511123E+01 
! Gamma  0.000000000000000E+00 8.949519891920911E+03 
! Port Impedance  3.158194743280540E+02 0.000000000000000E+00 

5.812500000000000E+02 2.148765384167422E-01 -7.828591471328929E+01 
! Gamma  0.000000000000000E+00 8.967323018079071E+03 
! Port Impedance  3.155317230192250E+02 0.000000000000000E+00 

5.818750000000000E+02 2.148569234066833E-01 -7.834453058312951E+01 
! Gamma  0.000000000000000E+00 8.985109965632029E+03 
! Port Impedance  3.152456796785600E+02 0.000000000000000E+00 

5.825000000000000E+02 2.148353951825471E-01 -7.840335727461304E+01 
! Gamma  0.000000000000000E+00 9.002880830471760E+03 
! Port Impedance  3.149613295095120E+02 0.000000000000000E+00 

5.831250000000000E+02 2.148119625882393E-01 -7.846239008469431E+01 
! Gamma  0.000000000000000E+00 9.020635707648231E+03 
! Port Impedance  3.146786573318940E+02 0.000000000000000E+00 

5.837500000000000E+02 2.147866344910947E-01 -7.852162435679601E+01 
! Gamma  0.000000000000000E+00 9.038374691379380E+03 
! Port Impedance  3.143976488268560E+02 0.000000000000000E+00 

5.843750000000000E+02 2.147594197811374E-01 -7.858105548035653E+01 
! Gamma  0.000000000000000E+00 9.056097875060919E+03 
! Port Impedance  3.141182893570210E+02 0.000000000000000E+00 

5.850000000000000E+02 2.147303273702537E-01 -7.864067889037143E+01 
! Gamma  0.000000000000000E+00 9.073805351276000E+03 
! Port Impedance  3.138405644752010E+02 0.000000000000000E+00 

5.856250000000000E+02 2.146993661913714E-01 -7.870049006695103E+01 
! Gamma  0.000000000000000E+00 9.091497211804761E+03 
! Port Impedance  3.135644603078080E+02 0.000000000000000E+00 

5.862500000000000E+02 2.146665451975444E-01 -7.876048453485399E+01 
! Gamma  0.000000000000000E+00 9.109173547633671E+03 
! Port Impedance  3.132899625263060E+02 0.000000000000000E+00 

5.868750000000000E+02 2.146318733610841E-01 -7.882065786306137E+01 
! Gamma  0.000000000000000E+00 9.126834448964810E+03 
! Port Impedance  3.130170574489300E+02 0.000000000000000E+00 

5.875000000000000E+02 2.145953596725600E-01 -7.888100566432722E+01 
! Gamma  0.000000000000000E+00 9.144480005224959E+03 
! Port Impedance  3.127457316464490E+02 0.000000000000000E+00 

5.881250000000000E+02 2.145570131398514E-01 -7.894152359474901E+01 
! Gamma  0.000000000000000E+00 9.162110305074590E+03 
! Port Impedance  3.124759711916730E+02 0.000000000000000E+00 

5.887500000000000E+02 2.145168427871035E-01 -7.900220735332785E+01 
! Gamma  0.000000000000000E+00 9.179725436416689E+03 
! Port Impedance  3.122077628815510E+02 0.000000000000000E+00 

5.893750000000000E+02 2.144748576536728E-01 -7.906305268153876E+01 
! Gamma  0.000000000000000E+00 9.197325486405471E+03 
! Port Impedance  3.119410936812670E+02 0.000000000000000E+00 

5.900000000000000E+02 2.144310667930627E-01 -7.912405536290726E+01 
! Gamma  0.000000000000000E+00 9.214910541454990E+03 
! Port Impedance  3.116759502864230E+02 0.000000000000000E+00 

5.906250000000000E+02 2.143854792717932E-01 -7.918521122256134E+01 
! Gamma  0.000000000000000E+00 9.232480687247580E+03 
! Port Impedance  3.114123199619580E+02 0.000000000000000E+00 

5.912500000000000E+02 2.143381041682496E-01 -7.924651612681099E+01 
! Gamma  0.000000000000000E+00 9.250036008742200E+03 
! Port Impedance  3.111501898784780E+02 0.000000000000000E+00 

5.918750000000000E+02 2.142889505715358E-01 -7.930796598271880E+01 
! Gamma  0.000000000000000E+00 9.267576590182660E+03 
! Port Impedance  3.108895474948710E+02 0.000000000000000E+00 

5.925000000000000E+02 2.142380275802508E-01 -7.936955673766450E+01 
! Gamma  0.000000000000000E+00 9.285102515105709E+03 
! Port Impedance  3.106303803983290E+02 0.000000000000000E+00 

5.931250000000000E+02 2.141853443012844E-01 -7.943128437889905E+01 
! Gamma  0.000000000000000E+00 9.302613866349069E+03 
! Port Impedance  3.103726758567930E+02 0.000000000000000E+00 

5.937500000000000E+02 2.141309098485606E-01 -7.949314493312869E+01 
! Gamma  0.000000000000000E+00 9.320110726059220E+03 
! Port Impedance  3.101164225147040E+02 0.000000000000000E+00 

5.943750000000000E+02 2.140747333417618E-01 -7.955513446604752E+01 
! Gamma  0.000000000000000E+00 9.337593175699220E+03 
! Port Impedance  3.098616074730170E+02 0.000000000000000E+00 

5.950000000000000E+02 2.140168239050702E-01 -7.961724908191840E+01 
! Gamma  0.000000000000000E+00 9.355061296056359E+03 
! Port Impedance  3.096082191308770E+02 0.000000000000000E+00 

5.956250000000000E+02 2.139571906658227E-01 -7.967948492310238E+01 
! Gamma  0.000000000000000E+00 9.372515167249690E+03 
! Port Impedance  3.093562454812640E+02 0.000000000000000E+00 

5.962500000000000E+02 2.138958427532189E-01 -7.974183816961998E+01 
! Gamma  0.000000000000000E+00 9.389954868737430E+03 
! Port Impedance  3.091056754431660E+02 0.000000000000000E+00 

5.968750000000000E+02 2.138327892969576E-01 -7.980430503867710E+01 
! Gamma  0.000000000000000E+00 9.407380479324340E+03 
! Port Impedance  3.088564970003520E+02 0.000000000000000E+00 

5.975000000000000E+02 2.137680394259188E-01 -7.986688178422344E+01 
! Gamma  0.000000000000000E+00 9.424792077168921E+03 
! Port Impedance  3.086086990367250E+02 0.000000000000000E+00 

5.981250000000000E+02 2.137016022667542E-01 -7.992956469644980E+01 
! Gamma  0.000000000000000E+00 9.442189739790560E+03 
! Port Impedance  3.083622700035830E+02 0.000000000000000E+00 

5.987500000000000E+02 2.136334869425630E-01 -7.999235010133995E+01 
! Gamma  0.000000000000000E+00 9.459573544076529E+03 
! Port Impedance  3.081171989472870E+02 0.000000000000000E+00 

5.993750000000000E+02 2.135637025714874E-01 -8.005523436016537E+01 
! Gamma  0.000000000000000E+00 9.476943566288970E+03 
! Port Impedance  3.078734748099640E+02 0.000000000000000E+00 

6.000000000000000E+02 2.134922582653404E-01 -8.011821386900230E+01 