! Touchstone file exported from HFSS 2019.3.0
!        File:           C:/Users/JH218595/Documents/Ansoft/test_10ports.aedt
!        Generated:      7:47:26  déc. 05, 2019
!        Design:         HFSSDesign1
!        Project:        test_10ports
!        Setup:          Setup1
!        Solution:       Sweep
!
!Data is not renormalized
# GHZ S MA
! Modal data exported
! Port[1] = 1:1
! Port[2] = 2:1
! Port[3] = 3:1
! Port[4] = 4:1
! Port[5] = 5:1
! Port[6] = 6:1
! Port[7] = 7:1
! Port[8] = 8:1
! Port[9] = 9:1
! Port[10] = 10:1
3.6                            0.390319674539464 36.3635434490564 0.249763504490377 -100.52824953035 0.505477394101109 10.7710545434465 0.420186423942711 26.4809149490226 
                0.331177557783875 -137.000275885714 0.254719809638   -116.431482457643 0.205627439186083 89.4638106054882 0.193658011457412 -62.1217536596362 
                0.21067411239692 -40.2018541128851 0.233397321525478 -28.6646923828753 
                0.249763504490374 -100.52824953035 0.519339974873324 -72.7304050474682 0.173561711709358 111.427194142009 0.174660545833829 96.2655911541903 
                0.184609970928676 -104.839667340486 0.212320938555772 -127.496651693023 0.257943562820776 31.8052049841828 0.318057529634396 -166.526479704113 
                0.388257613818776 177.055163199868 0.457901449571034 160.560632119142 
                0.505477394101116 10.7710545434463 0.173561711709354 111.427194142008 0.675256541355566 68.8794593552392 0.295611057209318 -129.116615047141 
                0.231149687416923 75.1666210945142 0.176962226739999 95.5277649244132 0.142891755723624 -58.581347196806 0.134573808039544 149.833704728494 
                0.146398326703359 171.753589750991 0.162188782232528 -176.709248729513 
                0.420186423942715 26.4809149490226 0.174660545833833 96.26559115419   0.295611057209319 -129.116615047141 0.728571150898109 66.3554396584738 
                0.235084040687572 50.2077012902493 0.179223541038001 80.6065773407339 0.143754843496056 -73.7344247096314 0.13542579107245 134.671427909177 
                0.147325232633786 156.591998135113 0.163215611578321 168.129148434281 
                0.331177557783877 -137.000275885713 0.184609970928675 -104.839667340485 0.231149687416917 75.1666210945112 0.235084040687572 50.2077012902483 
                0.782534215779275 66.5003590648334 0.192990207728819 -132.450498798503 0.153146941809938 85.4042255129461 0.143102009550079 -66.4231734001828 
                0.155717474681376 -44.5138427303573 0.172513123229609 -32.9760981171443 
                0.254719809638002 -116.431482457643 0.212320938555773 -127.496651693023 0.176962226739997 95.5277649244135 0.179223541038002 80.6065773407344 
                0.192990207728821 -132.450498798503 0.811706240052581 66.2728837719915 0.177647439438826 49.7581464616128 0.165843423270061 -88.9011669691467 
                0.179053307261113 -67.1624547051872 0.19840854122754 -55.6335297881689 
                0.205627439186085 89.463810605488  0.257943562820777 31.8052049841822 0.142891755723623 -58.5813471968048 0.143754843496055 -73.7344247096315 
                0.15314694180994 85.4042255129454 0.177647439438826 49.7581464616128 0.80644697513715 64.6371808783109 0.196914383751717 58.9164488536718 
                0.21879982166979 92.2669893440955 0.241000014620174 103.673023391985 
                0.193658011457411 -62.1217536596368 0.318057529634397 -166.526479704113 0.134573808039543 149.833704728496 0.135425791072453 134.671427909177 
                0.143102009550081 -66.4231734001831 0.165843423270061 -88.9011669691465 0.196914383751716 58.916448853672  0.761980022850214 62.3165626061058 
                0.261709708964469 -114.539388352278 0.298366720742714 -94.5373305076233 
                0.210674112396925 -40.2018541128864 0.388257613818777 177.055163199869 0.146398326703351 171.753589750994 0.147325232633786 156.591998135113 
                0.155717474681377 -44.513842730358 0.179053307261112 -67.1624547051877 0.218799821669789 92.266989344095  0.261709708964469 -114.539388352278 
                0.678443250401641 60.8952114830296 0.358854640402693 -117.240595382359 
                0.233397321525478 -28.6646923828759 0.457901449571037 160.560632119142 0.16218878223253 -176.709248729512 0.163215611578321 168.12914843428  
                0.17251312322961 -32.9760981171451 0.19840854122754 -55.6335297881691 0.241000014620174 103.673023391985 0.298366720742715 -94.5373305076231 
                0.358854640402696 -117.240595382359 0.581291948068966 65.6738709182339 
! Gamma         !               0                61.5540581068849 0                61.5540242358002 0                61.5540802515797 0                61.5540074267856 
!               0                61.5540475137823 0                61.5540045591947 0                61.5540034333865 0                61.5540260692742 
!               0                61.5539999928282 0                61.5540456535564 
! Port Impedance268.957769011257 0                134.456000436311 0                461.780284263182 0                461.780830597296 0                
!               461.780529863104 0                461.780852110089 0                461.78086055595  0                461.78069074058  0                
!               461.780886367174 0                461.780543818585 0                

3.62                           0.440454562169524 30.7048959610668 0.259122271124279 -119.21969209973 0.473603765555875 5.28936033680651 0.392928917637902 20.5362822937568 
                0.311895536671671 -142.75851782686 0.247685650789168 -121.69354659378 0.212711647777696 83.1091302936571 0.209670045300155 -72.4250567816377 
                0.227193694334105 -54.4757432023643 0.246391664676641 -45.1385802811813 
                0.259122271124278 -119.21969209973 0.568798985356898 -78.2499122858914 0.179104335546032 92.8841740281631 0.179869168531872 79.9280957336133 
                0.186849657655224 -118.7306252509  0.208603456768623 -139.610196987577 0.246874763166316 20.6015944022434 0.299905575981667 -177.150426543555 
                0.363847540208101 167.173140062526 0.428007272222599 151.684320059254 
                0.473603765555872 5.28936033680656 0.179104335546031 92.8841740281632 0.702889753044662 66.2373503759201 0.2776179956192  -135.617989080388 
                0.216605451944633 69.5930515307273 0.171152431877704 90.4141238346956 0.147025895482689 -64.787629255844 0.144923119781695 139.678833677645 
                0.157035382414684 157.628117410124 0.170304982014049 166.965285520936 
                0.392928917637903 20.5362822937569 0.179869168531875 79.9280957336126 0.2776179956192  -135.617989080388 0.748582367094271 63.172266609567  
                0.220802474965744 45.8819855812574 0.173084756404163 77.7167422842344 0.147609240300041 -77.734763937416 0.145542327609362 126.722238187612 
                0.157705788192041 144.672177147521 0.171032273692465 154.009274894905 
                0.311895536671674 -142.758517826861 0.186849657655222 -118.730625250899 0.216605451944631 69.5930515307294 0.220802474965746 45.8819855812567 
                0.796115477191749 62.5489699652896 0.182148727049781 -133.980323596562 0.154618584294357 83.8460847014035 0.15114897548841 -71.92606311824  
                0.163826109390856 -53.9870880548081 0.177669754329083 -44.6493371974819 
                0.247685650789168 -121.69354659378 0.208603456768623 -139.610196987577 0.171152431877704 90.4141238346953 0.173084756404159 77.7167422842352 
                0.182148727049777 -133.980323596562 0.81934932554557 61.9747333929515 0.172253002263863 49.2393605173562 0.170063257050081 -92.6188463649821 
                0.182856366675126 -74.8588682995968 0.198354990409129 -65.529382980338 
                0.212711647777697 83.1091302936573 0.246874763166317 20.6015944022433 0.147025895482689 -64.787629255844 0.147609240300039 -77.7347639374161 
                0.15461858429436 83.8460847014017 0.172253002263863 49.2393605173561 0.80973062606841 60.6320789011662 0.196676229970765 55.759838168331  
                0.217702899382241 85.5085358479241 0.234699795454848 94.6864660559738 
                0.209670045300154 -72.4250567816379 0.299905575981668 -177.150426543556 0.144923119781695 139.678833677645 0.145542327609364 126.722238187613 
                0.151148975488413 -71.9260631182386 0.17006325705008 -92.6188463649824 0.196676229970765 55.7598381683313 0.764573434890237 59.2668928055195 
                0.258684599796726 -121.198161690783 0.286310724008653 -102.911060398971 
                0.22719369433411 -54.475743202364 0.363847540208102 167.173140062527 0.157035382414684 157.628117410124 0.157705788192041 144.67217714752  
                0.163826109390855 -53.9870880548094 0.182856366675127 -74.8588682995975 0.217702899382242 85.5085358479239 0.258684599796727 -121.198161690784 
                0.687421753297527 59.2599967605113 0.345440655234254 -125.395836222968 
                0.246391664676643 -45.1385802811812 0.428007272222602 151.684320059254 0.170304982014049 166.965285520936 0.171032273692464 154.009274894906 
                0.177669754329083 -44.6493371974824 0.198354990409131 -65.5293829803383 0.23469979545485 94.6864660559737 0.286310724008651 -102.911060398971 
                0.345440655234254 -125.395836222967 0.608725578089911 64.8706378929227 
! Gamma         !               0                62.0671469265905 0                62.0671133355071 0                62.0671688882224 0                62.0670966654474 
!               0                62.0671364210576 0                62.067093821562  0                62.0670927050604 0                62.0671151538243 
!               0                62.0670892929441 0                62.0671345762096 
! Port Impedance268.216232683087 0                134.085297825511 0                460.5071386135   0                460.507674470745 0                
!               460.507379503639 0                460.507695570993 0                460.507703854893 0                460.507537296019 0                
!               460.507729171139 0                460.507393191499 0                

3.64                           0.491773419329991 23.3805892648782 0.26683146840417 -138.305917412152 0.432043356266796 0.377832973243463 0.360659316723665 15.4820543625223 
                0.292286216364422 -147.508979336685 0.243546375900942 -126.537121027561 0.222375066310656 75.9341594115105 0.225702287967976 -83.8460536843538 
                0.242290469263232 -69.4408267953176 0.257644686910819 -62.0818236105903 
                0.266831468404169 -138.305917412152 0.623383151802729 -84.7705135047593 0.18342597875068 73.942378690883  0.184008303083843 63.1859587472433 
                0.188323166205722 -132.900462252252 0.20409753323387 -151.650419430981 0.234086552553216 9.78510737835127 0.278199114363563 172.679957130577 
                0.333569603534435 157.63697317556  0.390009703721411 142.983552238567 
                0.432043356266798 0.377832973243591 0.183425978750681 73.9423786908829 0.734054894752074 62.9504499661302 0.25593144855232 -141.463855497841 
                0.201975295150928 65.0247472008746 0.167369153826584 85.7150349387402 0.152866308289243 -71.8181980663067 0.155152949180735 128.402251601098 
                0.166555983753321 142.807474019545 0.177110784887283 150.166473001765 
                0.360659316723666 15.4820543625223 0.184008303083842 63.1859587472437 0.25593144855232 -141.463855497841 0.769593347211634 59.6146853945828 
                0.206057246522821 42.3847885386119 0.169171804476639 75.2301972379172 0.153303524349357 -82.5661052444111 0.155645495906683 117.645010682274 
                0.167084997289642 132.050921438632 0.177673007384747 139.409986408491 
                0.29228621636442 -147.508979336682 0.188323166205716 -132.900462252256 0.20197529515093 65.024747200872  0.206057246522817 42.3847885386131 
                0.808048380635325 58.4762081478881 0.173767393982884 -134.893005633767 0.158253925480109 81.58425117505   0.159249262284334 -78.4319238946711 
                0.171003478198344 -64.0361708813083 0.181839399267871 -56.676513930392 
                0.24354637590094 -126.537121027562 0.204097533233869 -151.650419430981 0.167369153826585 85.7150349387404 0.169171804476642 75.2301972379161 
                0.173767393982888 -134.893005633767 0.824679346387012 57.7306858399937 0.169348099126574 48.5509496750963 0.17395748835104 -96.9814462721203 
                0.185280180878686 -82.7789461490215 0.19707156836348 -75.4269977022545 
                0.222375066310656 75.93415941151   0.234086552553217 9.78510737835138 0.152866308289243 -71.8181980663069 0.15330352434936 -82.5661052444102 
                0.158253925480105 81.5842511750517 0.169348099126577 48.5509496750965 0.812567966844293 56.7464959861798 0.195203982633029 52.1658093665699 
                0.213826465309396 78.8442991078245 0.225977501287606 86.0120417236355 
                0.225702287967975 -83.8460536843539 0.27819911436356 172.679957130576 0.155152949180735 128.402251601098 0.155645495906683 117.645010682273 
                0.159249262284328 -78.4319238946727 0.173957488351042 -96.9814462721199 0.195203982633027 52.1658093665701 0.770712049878849 56.2630021595943 
                0.250752285628458 -127.872836930644 0.269743528555876 -110.899623608749 
                0.242290469263233 -69.4408267953182 0.333569603534434 157.63697317556  0.166555983753321 142.807474019546 0.167084997289644 132.050921438633 
                0.171003478198337 -64.0361708813076 0.185280180878687 -82.7789461490214 0.213826465309396 78.8442991078247 0.250752285628459 -127.872836930644 
                0.704657111695203 57.3785568163044 0.32505231162196 -133.433920290989 
                0.257644686910819 -62.0818236105907 0.390009703721409 142.983552238567 0.177110784887284 150.166473001765 0.177673007384746 139.40998640849  
                0.181839399267871 -56.6765139303908 0.197071568363482 -75.4269977022547 0.225977501287607 86.0120417236353 0.269743528555877 -110.899623608749 
                0.325052311621961 -133.433920290989 0.645899795824805 63.1899726795398 
! Gamma         !               0                62.5788366070884 0                62.5788032906701 0                62.5788583891463 0                62.578786756917  
!               0                62.5788261874563 0                62.5787839362852 0                62.578782828913  0                62.5788050941195 
!               0                62.5787794446967 0                62.5788243576931 
! Port Impedance267.492836519918 0                133.723663673949 0                459.265137728429 0                459.265663436696 0                
!               459.265374056182 0                459.26568413731  0                459.26569226433  0                459.265528860022 0                
!               459.265717101081 0                459.2653874848   0                

3.66                           0.539305757952644 14.7467390205394 0.271946553734312 -157.656979522508 0.383105406520861 -3.19087317977299 0.326046091732427 11.937122315487  
                0.274538185317572 -151.036312728358 0.242734262950103 -131.26798702016 0.233256209655346 67.7931786914492 0.240233921802777 -96.1842399354888 
                0.254746274959026 -84.9220943594322 0.266103542541353 -79.3565933687214 
                0.271946553734312 -157.656979522509 0.679282410700434 -92.3340608977165 0.185897974968838 54.7317762585612 0.186461008514459 46.1640636510994 
                0.188547587724235 -147.24864193238 0.198708661156502 -163.495816549306 0.219993990737626 -0.370605399728495 0.253662031877873 163.41325410706  
                0.298160672879903 148.990361267895 0.344410411406182 135.029485367328 
                0.383105406520861 -3.19087317977405 0.185897974968837 54.7317762585615 0.765441623605254 58.9703152102834 0.231985204612109 -146.114496578167 
                0.188769885457782 61.6732154158639 0.165875030445743 81.124657440221  0.159450623349545 -79.8187094083249 0.164219725034556 116.204553745583 
                0.174140088455619 127.466655976104 0.181903782032725 133.032161365184 
                0.326046091732424 11.9371223154874 0.186461008514459 46.1640636510987 0.231985204612108 -146.114496578167 0.789676984282989 55.6740996705666 
                0.192080946281398 39.9680860821675 0.167724107546692 72.8376610374828 0.15988158108101 -88.3780040251116 0.164718054706771 107.636304129739 
                0.174667358480743 118.89920634148  0.182454809127844 124.464541558008 
                0.274538185317575 -151.036312728352 0.188547587724228 -147.248641932383 0.18876988545777 61.673215415863  0.192080946281403 39.9680860821668 
                0.817744962098837 54.3111627330215 0.168174634605353 -135.422811779908 0.163094008447424 78.4497118133369 0.166510732949616 -85.7675128854972 
                0.17662231054217 -74.5140600496701 0.184496589057988 -68.9480064919884 
                0.242734262950103 -131.267987020161 0.198708661156505 -163.495816549306 0.165875030445744 81.1246574402198 0.16772410754669 72.8376610374862 
                0.168174634605341 -135.422811779902 0.828046655894653 53.5627151676609 0.16815720889742 47.4904782106703 0.176902100103847 -101.794996175544 
                0.186087703089143 -90.7547216734342 0.194439975040696 -85.1956535849344 
                0.233256209655349 67.7931786914492 0.219993990737624 -0.370605399728144 0.159450623349547 -79.8187094083244 0.159881581081006 -88.3780040251123 
                0.16309400844742 78.4497118133351 0.168157208897417 47.4904782106699 0.815595522528603 52.9436041149563 0.191884813841291 48.4403654189568 
                0.207365545835537 72.5934809109093 0.215212679731942 77.9322357804395 
                0.240233921802781 -96.1842399354894 0.253662031877872 163.41325410706  0.164219725034558 116.204553745583 0.164718054706769 107.636304129739 
                0.166510732949609 -85.7675128854957 0.176902100103843 -101.794996175544 0.191884813841292 48.440365418957  0.780543919812623 53.1498453108643 
                0.237909620863368 -134.119370828359 0.249319933114749 -118.045569638348 
                0.254746274959024 -84.9220943594327 0.298160672879896 148.990361267896 0.174140088455621 127.466655976104 0.174667358480744 118.899206341478 
                0.176622310542156 -74.5140600496718 0.18608770308914 -90.7547216734329 0.207365545835535 72.5934809109101 0.237909620863365 -134.11937082836 
                0.728839239514315 54.9426674969177 0.297885412415974 -140.88631418796 
                0.266103542541353 -79.3565933687231 0.344410411406181 135.029485367329 0.181903782032726 133.032161365184 0.182454809127845 124.464541558008 
                0.184496589057993 -68.9480064919845 0.194439975040694 -85.1956535849342 0.215212679731943 77.9322357804392 0.249319933114751 -118.045569638349 
                0.29788541241598 -140.88631418796 0.68929891298646 60.3651151542767 
! Gamma         !               0                63.0891611918786 0                63.089128144955  0                63.0891827977427 0                63.0891117449426 
!               0                63.0891508565303 0                63.0891089471269 0                63.0891078487122 0                63.0891299338165 
!               0                63.0891044918706 0                63.0891490415679 
! Port Impedance266.78694704546  0                133.370781300949 0                458.053194000731 0                458.053709873615 0                
!               458.053425907076 0                458.053730186946 0                458.053738161904 0                458.053577814715 0                
!               458.053762534    0                458.053439084457 0                

3.68                           0.578508432906284 5.23085868768379 0.273823813548599 -177.072415043933 0.332023504390979 -4.35066777136431 0.29351564662514 10.5271203854928 
                0.261090845680914 -153.382572594792 0.244969294679954 -136.237648918039 0.243756498660149 58.7563029887714 0.251909479682353 -109.151151437149 
                0.263569363155209 -100.679005656895 0.270989776598051 -96.7548664959482 
                0.2738238135486  -177.072415043934 0.731599203825836 -100.802357235966 0.186111003483639 35.4527811250935 0.186820291206512 29.0591996312467 
                0.187237327608334 -161.606789471646 0.192598001137177 -174.991401924715 0.205563030951661 -9.56405483198922 0.228066454293325 155.626812437108 
                0.259919097501244 142.037410943532 0.293705034223221 128.748160850925 
                0.332023504390971 -4.35066777136499 0.186111003483637 35.4527811250945 0.793314716867585 54.3854104916616 0.208293328201113 -148.974899135824 
                0.178631455559537 59.4910754743669 0.166441450794889 76.2913236704854 0.165675915039506 -88.7191369896858 0.171216307824091 103.374098394586 
                0.179141185845526 111.84618421599  0.18418476046599 115.770327450286 
                0.293515646625137 10.5271203854946 0.186820291206514 29.0591996312442 0.208293328201111 -148.974899135822 0.806803871419187 51.4109939174053 
                0.18038166405722 38.7164263101272 0.168498641639551 70.185828483689  0.166250805189348 -95.1049815187128 0.171870426996563 96.980029643949  
                0.179823843544879 105.453069624992 0.184886899461381 109.376900311775 
                0.261090845680921 -153.382572594789 0.187237327608333 -161.606789471645 0.178631455559527 59.4910754743747 0.18038166405723 38.7164263101197 
                0.82478282299724 50.1002410179492 0.165321322556939 -135.904703955278 0.168106952089704 74.4803372796311 0.172198357463215 -93.6780581000665 
                0.180225717770826 -85.2134304368427 0.18529976602917 -81.2888391719707 
                0.244969294679957 -136.237648918041 0.192598001137184 -174.991401924717 0.16644145079489 76.2913236704814 0.168498641639552 70.1858284837001 
                0.165321322556921 -135.904703955262 0.829887997065947 49.4828558575707 0.16789112477752 46.0127818735164 0.178593451066982 -106.81935716976 
                0.185327182762166 -98.5921687530854 0.190605802786599 -94.6738738756532 
                0.243756498660155 58.756302988772  0.205563030951657 -9.56405483198837 0.165675915039511 -88.7191369896848 0.166250805189334 -95.104981518714 
                0.168106952089693 74.4803372796228 0.167891124777508 46.0127818735176 0.819071026090846 49.1700588268815 0.186772390909331 44.9648918422208 
                0.19917772495667 67.0949680433066 0.203376796163603 70.7554672265035 
                0.251909479682358 -109.15115143715 0.228066454293329 155.626812437108 0.171216307824093 103.374098394584 0.171870426996563 96.9800296439518 
                0.172198357463218 -93.678058100061 0.178593451066972 -106.819357169758 0.186772390909338 44.96489184222   0.793009906840924 49.7864498044548 
                0.221227667772897 -139.372009265621 0.226819920109148 -123.765535597295 
                0.263569363155207 -100.679005656894 0.259919097501233 142.037410943533 0.179141185845531 111.84618421599  0.179823843544865 105.453069624986 
                0.180225717770801 -85.2134304368501 0.185327182762158 -98.5921687530821 0.199177724956668 67.0949680433077 0.221227667772887 -139.372009265621 
                0.75667787681064 51.7678758131517 0.265586794477394 -147.064653765469 
                0.27098977659805 -96.7548664959506 0.293705034223225 128.748160850925 0.18418476046599 115.770327450284 0.184886899461386 109.376900311779 
                0.185299766029182 -81.2888391719657 0.190605802786593 -94.6738738756519 0.203376796163607 70.7554672265025 0.226819920109148 -123.765535597295 
                0.265586794477405 -147.064653765469 0.733608944808862 56.3842178215089 
! Gamma         !               0                63.5981535423907 0                63.5981207599503 0                63.5981749753364 0                63.5981044911916 
!               0                63.5981432897589 0                63.5981017157675 0                63.5981006261437 0                63.5981225344947 
!               0                63.5980972961678 0                63.5981414893221 
! Port Impedance266.097959874741 0                133.026348568813 0                456.870269769415 0                456.870776107004 0                
!               456.870497389252 0                456.870796044865 0                456.870803872417 0                456.870646489058 0                
!               456.870827794023 0                456.870510323064 0                

3.7                            0.606304712160312 -4.73715768131871 0.272360578979665 163.680085181256 0.286969172809478 -1.96150701839778 0.268436141507138 11.4970164857266 
                0.253687722504908 -154.971943969473 0.249297092151555 -141.698840029153 0.252495755261528 49.0514722113491 0.259874632657618 -122.424729401689 
                0.268303419583632 -116.444957338462 0.272071472283709 -114.037707421475 
                0.272360578979665 163.680085181256 0.775741557736677 -109.915734063613 0.184032707968301 16.3376794075234 0.185044484957548 12.0998370717114 
                0.184431352733094 -175.778932320581 0.186208909390639 174.003004654825 0.192204933628853 -17.571882602143 0.20416940756834 149.897666668746 
                0.222862893254676 137.815024735562 0.242797893539972 125.552541877874 
                0.286969172809473 -1.96150701839701 0.1840327079683  16.3376794075246 0.81463606981426 49.3879496483736 0.188068922700599 -149.649378466543 
                0.172683919168883 58.0504579040105 0.168386858802052 70.9621295695314 0.17061143453991 -98.2915955073382 0.175596034185063 90.2328928846399 
                0.181291302547303 96.2126362968196 0.183837360113159 98.6198868016126 
                0.268436141507143 11.4970164857286 0.185044484957551 12.0998370717086 0.188068922700601 -149.64937846654 0.819455807317687 46.9411092774697 
                0.172242769049278 38.4006865127424 0.170807995603875 67.0212654859011 0.171487109619043 -102.523063240439 0.176562546929479 85.994349154222  
                0.182288032177207 91.9748213880899 0.184848060353302 94.382043863535  
                0.253687722504912 -154.971943969473 0.184431352733103 -175.778932320578 0.172683919168896 58.0504579040213 0.17224276904928 38.4006865127304 
                0.829072527059677 45.8984823586848 0.164736493922751 -136.655092984467 0.17245966236096 69.8671532411938 0.175915704445691 -101.877930514476 
                0.181685211174634 -95.9046147375492 0.184235594886257 -93.4966979348452 
                0.249297092151557 -141.698840029157 0.186208909390646 174.003004654822 0.168386858802051 70.9621295695257 0.170807995603886 67.0212654859135 
                0.16473649392275 -136.655092984449 0.830649307729994 45.4914868099081 0.167985928988232 44.203578169511  0.179123987080119 -111.8261007943  
                0.183373687755047 -106.117869059898 0.186012706609555 -103.71535239785 
                0.252495755261529 49.0514722113505 0.19220493362885 -17.5718826021418 0.170611434539915 -98.291595507337 0.171487109619029 -102.523063240441 
                0.17245966236094 69.8671532411829 0.167985928988222 44.2035781695143 0.82279001816698 45.375681265732  0.180651560450009 42.0962305966268 
                0.190700577979332 62.6015093939835 0.191938397650901 64.7113257172514 
                0.259874632657618 -122.42472940169 0.204169407568345 149.897666668745 0.175596034185062 90.2328928846369 0.176562546929482 85.9943491542257 
                0.175915704445704 -101.877930514471 0.179123987080114 -111.826100794299 0.180651560450016 42.0962305966247 0.806131815127735 46.1012895460902 
                0.202941935390575 -143.018872931061 0.205112338737044 -127.481267888832 
                0.268303419583634 -116.444957338461 0.222862893254668 137.815024735563 0.181291302547308 96.21263629682   0.182288032177184 91.9748213880876 
                0.181685211174601 -95.9046147375607 0.18337368775504 -106.117869059893 0.190700577979332 62.6015093939844 0.202941935390562 -143.01887293106 
                0.783895547934438 47.8543325143133 0.231452258191508 -151.062412611439 
                0.272071472283706 -114.037707421476 0.242797893539977 125.552541877873 0.183837360113157 98.6198868016093 0.184848060353309 94.3820438635396 
                0.184235594886271 -93.4966979348416 0.18601270660955 -103.715352397848 0.191938397650906 64.7113257172494 0.205112338737043 -127.481267888832 
                0.231452258191521 -151.062412611439 0.773328046311486 51.4537497660764 
! Gamma         !               0                64.1058453919504 0                64.1058128691336 0                64.1058666551574 0                64.1057967292168 
!               0                64.1058352205152 0                64.105793975773  0                64.1057928947786 0                64.1058146296245 
!               0                64.1057895911748 0                64.1058334343371 
! Port Impedance265.42529805216  0                132.690077052008 0                455.715374466397 0                455.715871556018 0                
!               455.715597928891 0                455.715891129725 0                455.715898814311 0                455.715744305473 0                
!               455.715922299003 0                455.715610626474 0                

3.72                           0.621683112473328 -14.7844082196665 0.268032749360638 144.811332487275 0.257473257072569 4.29063756802321 0.255091715968529 14.2155698879079 
                0.25254200841659 -156.480888024095 0.254476731526362 -147.723585732848 0.258652729889634 38.9659543821566 0.263953506512132 -135.709766594859 