! Touchstone file from project Project1
! Exported from HFSS 2017.1.0
!Data is not renormalized
# GHZ S DB
! Modal data exported
! Port[1] = 1:1
! Port[2] = 2:1
! Port[3] = 3:1
2.9              -12.1586984297013 -58.8076830561439 -2.45325121878664 50.8632599583451 -4.30929340333341 12.9090022082271 
                -2.45325121878664 50.8632599583451 -12.1606731412211 151.684863472456 -4.30896947552799 -61.8442205573913 
                -4.30929340333341 12.9090022082272 -4.30896947552799 -61.8442205573913 -5.87555793689833 78.0569324355434 
! Gamma         !               0                43.4948914269895 0                43.4948615509823 0                43.494843065829  
! Port Impedance526.440725797998 0                526.441087402711 0                526.441311138297 0                

2.91022222222222 -12.1836784662607 -61.7437163145856 -2.44483726651407 47.4938051173379 -4.3180787073572 10.4726973718017 
                -2.44483726650722 47.4938051173376 -12.185456695894 147.721070806753 -4.31773710270331 -64.7944973946624 
                -4.31807870735675 10.4726973718056 -4.31773710270279 -64.7944973946613 -5.85045173280899 76.0130527902856 
! Gamma         !               0                43.7937725905704 0                43.7937429184594 0                43.7937245594627 
! Port Impedance524.690892874267 0                524.691248374515 0                524.691468333082 0                

2.92044444444444 -12.2088899917843 -64.6714948436655 -2.43638907715192 44.1353234065136 -4.32696579403939 8.04312633696158 
                -2.43638907714081 44.135323406512  -12.210538598008 143.768809544144 -4.32661433856575 -67.7363550335891 
                -4.32696579403864 8.04312633696782 -4.3266143385649 -67.7363550335872 -5.82525202495537 73.9734446206243 
! Gamma         !               0                44.0916687640364 0                44.091639292399  0                44.0916210574412 
! Port Impedance522.976465187378 0                522.976814754168 0                522.977031041523 0                

2.93066666666667 -12.2343339984451 -67.5912154114554 -2.4279031482444 40.7875770528143 -4.3359562751002 5.62012220455952 
                -2.42790314823104 40.7875770528109 -12.2359045840416 139.827850867197 -4.33560113173505 -70.669990903871 
                -4.33595627509928 5.62012220456696 -4.335601131734  -70.6699909038686 -5.79995836570104 71.9379659626586 
! Gamma         !               0                44.3885997784829 0                44.3885705039918 0                44.3885523910143 
! Port Impedance521.296382887815 0                521.296726685468 0                521.296939403283 0                

2.94088888888889 -12.260011831656 -70.5030701804452 -2.41937658807467 37.4503366989509 -4.34505179985369 3.20352226483724 
                -2.41937658806056 37.450336698946  -12.2615430241784 135.897964697917 -4.34469773921446 -73.5955979892473 
                -4.34505179985269 3.20352226484503 -4.34469773921332 -73.5955979892447 -5.77457030863139 69.9064781270083 
! Gamma         !               0                44.6845848744854 0                44.6845557939049 0                44.6845378009057 
! Port Impedance519.649628675105 0                519.64996686159  0                519.650176107604 0                

2.95111111111111 -12.2859251540307 -73.4072467819048 -2.41080702177181 34.1233810025233 -4.3542540557379 0.793167847698621 
                -2.410807021758  34.1233810025171 -12.2874446635461 131.978920853396 -4.35390469349672 -76.5133648858349 
                -4.35425405573689 0.793167847706177 -4.35390469349558 -76.5133648858323 -5.74908740718487 67.8788455659252 
! Gamma         !               0                44.9796427256793 0                44.979613835862  0                44.9795959608937 
! Port Impedance518.03522565052  0                518.035558377766 0                518.035764245982 0                

2.96133333333333 -12.3120759128114 -76.3039284009327 -2.4021925085809 30.8064962418227 -4.36356476894989 -1.61109582252761 
                -2.40219250856816 30.8064962418157 -12.3136023764444 128.070490034598 -4.36322277274218 -79.4234758722039 
                -4.36356476894894 -1.6110958225207 -4.3632227727411 -79.4234758722014 -5.72350921343135 65.8549357448975 
! Gamma         !               0                45.2737914611571 0                45.2737627590402 0                45.2737450002077 
! Port Impedance516.452235300131 0                516.452562714322 0                516.45276529519  0                

2.97155555555556 -12.3384663105688 -79.1932938704162 -2.3935314693123 27.4994759313092 -4.37298570517595 -4.00941976790384 
                -2.3935314693011 27.499475931302  -12.3400109344932 124.172444662533 -4.37265297385807 -82.3261109894249 
                -4.37298570517508 -4.00941976789781 -4.37265297385709 -82.3261109894226 -5.69783527698552 63.8346190186107 
! Gamma         !               0                45.5670486867523 0                45.5670201693546 0                45.5670025248133 
! Port Impedance514.899755598991 0                514.900077840846 0                514.900277221432 0                

2.98177777777778 -12.3650987789805 -82.0755177723067 -2.38482262303647 24.2021204491368 -4.38251867040812 -6.40195139336252 
                -2.38482262302705 24.2021204491299 -12.3666667893523 120.284559575682 -4.38219648830828 -85.2214461294905 
                -4.38251867040736 -6.40195139335751 -4.38219648830743 -85.2214461294885 -5.67206514404327 61.817768511118  
! Gamma         !               0                45.859431505278  0                45.8594031696968 0                45.8593856376508 
! Port Impedance513.376919227968 0                513.377236432998 0                513.377432697148 0                

2.992            -12.3919759554979 -84.9507705447659 -2.37606493214352 20.9142366785732 -4.39216551183979 -8.78883461893652 
                -2.37606493213597 20.9142366785669 -12.3935678704096 116.406612602041 -4.39185468048565 -88.1096531306529 
                -4.39216551183915 -8.78883461893256 -4.39185468048493 -88.1096531306512 -5.64619835653039 59.8042600000824 
! Gamma         !               0                46.1509565357819 0                46.1509283791903 0                46.1509109578903 
! Port Impedance511.882891895404 0                511.883204194161 0                511.88339742265  0                

3.00222222222222 -12.4191006627162 -87.8192185938817 -2.36725755493942 17.6356376646945 -4.40192811883363 -11.1702100078351 
                -2.36725755493372 17.6356376646892 -12.4207133976185 112.538385018572 -4.40162906848155 -90.9908998783639 
                -4.40192811883313 -11.1702100078322 -4.40162906848098 -90.9908998783626 -5.62023445135333 57.793971804948  
! Gamma         !               0                46.4416399318747 0                46.4416119515184 0                46.4415946392605 
! Port Impedance510.416870756436 0                510.417178274744 0                510.417368545424 0                

3.01244444444444 -12.4464758902635 -90.6810244087969 -2.35839980500458 14.3661422873267 -4.41180842395654 -13.5462148904682 
                -2.3583998050006 14.3661422873226 -12.4481037094733 108.679661910207 -4.41152130709157 -93.865350410633 
                -4.41180842395617 -13.5462148904662 -4.41152130709114 -93.865350410632 -5.5941729597428 55.7867846789026 
! Gamma         !               0                46.7314973991856 0                46.7314695923808 0                46.7314523875043 
! Port Impedance508.978082923332 0                508.978385782505 0                508.978573170436 0                

3.02266666666667 -12.4741047790364 -93.536346679211 -2.349491116593  11.1055749508543 -4.42180840407698 -15.9169834845213 
                -2.34949111659057 11.1055749508517 -12.4757401059515 104.830232439889 -4.42153317290059 -96.7331650267381 
                -4.42180840407673 -15.9169834845201 -4.4215331729003 -96.7331650267374 -5.56801340668129 53.7825817044941 
! Gamma         !               0                47.0205442119952 0                47.0205165761257 0                47.020499477012  
! Port Impedance507.565784060732 0                507.566082377781 0                507.566266955361 0                

3.03288888888889 -12.5019906076101 -96.3853404143387 -2.34053101540274 7.85376529121983 -4.43193008152088 -18.2826470111899 
                -2.34053101540163 7.85376529121862 -12.5036247061086 100.989890040401 -4.43166655129565 -99.5945003983399 
                -4.43193008152074 -18.2826470111894 -4.43166655129548 -99.5945003983395 -5.54175531040674 51.7812481927667 
! Gamma         !               0                47.3087952290927 0                47.3087677616078 0                47.3087507666786 
! Port Impedance506.179257060156 0                506.179550947986 0                506.17973278508  0                

3.04311111111111 -12.5301367806594 -99.2281570625156 -2.33151909409883 4.61054790017201 -4.44217552528316 -20.6433338076821 
                -2.33151909409883 4.6105479001721  -12.5317603198984 97.1584325380494 -4.44192342526068 -102.449509682155 
                -4.4421755252831 -20.6433338076822 -4.44192342526061 -102.449509682154 -5.51539818198464 49.7826715857819 
! Gamma         !               0                47.5962649088998 0                47.5962376073119 0                47.596220715028  
! Port Impedance504.81781078855  0                504.818100356141 0                504.818279520171 0                

3.05333333333333 -12.5585468192362 -102.064944630742 -2.32245499201962 1.37576206661063 -4.45254685229258 -22.9991694361034 
                -2.32245499202049 1.37576206661193 -12.5601503336951 93.3356622175074 -4.45230586581282 -105.298342633438 
                -4.45254685229262 -22.999169436104 -4.45230586581283 -105.298342633438 -5.48894152494184 47.7867413623958 
! Gamma         !               0                47.8829673239039 0                47.882940185786  0                47.8829233946459 
! Port Impedance503.480778906054 0                503.481064258638 0                503.481240814715 0                

3.06355555555556 -12.5872243527526 -104.895847803543 -2.31333837854425 -1.85074846530206 -4.46304622872839 -25.3502767888322 
                -2.31333837854576 -1.85074846529976 -12.5887986089144 89.5213858364438 -4.46281602394646 -108.141145719624 
                -4.46304622872848 -25.350276788833 -4.46281602394654 -108.141145719624 -5.46238483495574 45.793348947163  
! Gamma         !               0                48.1689161744359 0                48.1688891974203 0                48.1688725059588 
! Port Impedance502.167518748517 0                502.16779998774  0                502.167973998757 0                

3.07377777777778 -12.616173112528 -107.721008060626 -2.30416893964536 -5.06913572175668 -4.47367587138748 -27.6967761905049 
                -2.30416893964729 -5.06913572175346 -12.6177093930699 85.7154145978092 -4.4734561239574 -110.978062233543 
                -4.47367587138761 -27.6967761905059 -4.47345612395753 -110.978062233543 -5.43572759959286 43.8023876222393 
! Gamma         !               0                48.4541248018323 0                48.4540979836077 0                48.454081390395  
! Port Impedance500.877410270622 0                500.877687494705 0                500.877859021432 0                

3.084            -12.645396926767 -110.540563792858 -2.29494636719364 -8.27954770922577 -4.48443804910193 -30.0387854967178 
                -2.29494636719583 -8.27954770922199 -12.6468872425563 81.9175640870043 -4.4842284580259 -113.809232405728 
                -4.48443804910209 -30.038785496719 -4.48422845802606 -113.809232405729 -5.4089692980914 41.8137524421651 
! Gamma         !               0                48.7386062010103 0                48.7385795393207 0                48.7385630429607 
! Port Impedance499.609855045794 0                499.610128349674 0                499.610297450854 0                

3.09422222222222 -12.6748997168393 -113.354650416204 -2.28567035062305 -11.4821286094121 -4.49533508420677 -32.3764201895628 
                -2.28567035062533 -11.4821286094079 -12.6763369564152 78.127654180446  -4.49513538194416 -116.634793515382 
                -4.49533508420694 -32.3764201895641 -4.49513538194433 -116.634793515382 -5.38210940118312 39.8273401514021 
! Gamma         !               0                49.0223730324911 0                49.0223465251332 0                49.0223301242628 
! Port Impedance498.36427531931  0                498.364544794788 0                498.364711527219 0                

3.10444444444444 -12.7046854947444 -116.163400483292 -2.2763405706033 -14.6770189599746 -4.50636935405856 -34.7097934701076 
                -2.27634057060555 -14.6770189599703 -12.7060635203188 74.3455089314174 -4.50617931188023 -119.454879999638 
                -4.50636935405873 -34.7097934701088 -4.5061793118804 -119.454879999638 -5.3551473709496 37.8430491045093 
! Gamma         !               0                49.3054376338977 0                49.3054112787198 0                49.3053949720075 
! Port Impedance497.140113111337 0                497.140378847202 0                497.140543265823 0                

3.11466666666667 -12.7347583616476 -118.966943792348 -2.26695669440391 -17.8643558218471 -4.51754329260582 -37.0390163479302 
                -2.26695669440601 -17.8643558218429 -12.7360720599961 70.570956438463  -4.51736272207697 -122.269623560828 
                -4.51754329260598 -37.0390163479313 -4.51736272207713 -122.269623560828 -5.32808266070892 35.8607791888412 
! Gamma         !               0                49.5878120309574 0                49.5877858258574 0                49.5877696120026 
! Port Impedance495.936829366815 0                495.937091448955 0                495.937253606921 0                

3.12488888888889 -12.765122507384 -121.765407493296 -2.25751837266757 -21.0442729339988 -4.52885939201262 -39.3641977278206 
                -2.25751837266943 -21.0442729339949 -12.766367803324 66.8038287009887 -4.52868814339126 -125.079153271496 
                -4.52885939201277 -39.3641977278217 -4.52868814339139 -125.079153271496 -5.30091471492907 33.8804317496545 
! Gamma         !               0                49.8695079480324 0                49.8694818909563 0                49.8694657686881 
! Port Impedance494.753903149192 0                494.754161660809 0                494.754321609567 0                

3.13511111111111 -12.7957822108335 -124.558916190863 -2.24802523734303 -24.2169008564956 -4.5403202043372 -41.685444493754 
                -2.24802523734462 -24.2169008564921 -12.7969560503105 63.0439614661778 -4.54015816258488 -127.883595676969 
                -4.54032020433732 -41.685444493755 -4.54015816258499 -127.883595676969 -5.27364296916431 31.9019095175137 
! Gamma         !               0                50.1505368182046 0                50.1505109071459 0                50.1504948752212 
! Port Impedance493.590830875865 0                493.59108589743  0                493.591243686789 0                

3.14533333333333 -12.8267418410767 -127.347592044573 -2.23847690055734 -27.3823671027345 -4.55192834326763 -44.0028615902449 
                -2.23847690055861 -27.3823671027316 -12.8278421502138 59.2911940707867 -4.55177542228528 -130.683074895328 
                -4.55192834326771 -44.0028615902458 -4.55177542228535 -130.683074895328 -5.24626685001177 29.9251165378871 
! Gamma         !               0                50.4309097929359 0                50.4308840259289 0                50.4308680831366 
! Port Impedance492.447125591942 0                492.447377201417 0                492.447532879613 0                

3.15555555555556 -12.8580058592483 -130.131554865553 -2.22887295423437 -30.5407962617091 -4.56368648591711 -46.3165521011869 
                -2.22887295423532 -30.5407962617068 -12.8590314850568 55.5453692808976 -4.56354262154003 -133.477712714668 
                -4.56368648591716 -46.3165521011877 -4.56354262154006 -133.477712714668 -5.21878577508495 27.9499581028269 
! Gamma         !               0                50.710637751327  0                50.7106121264553 0                50.7105962716058 
! Port Impedance491.322316280973 0                491.322564553883 0                491.322718167645 0                

3.16577777777778 -12.8895788210141 -132.910922210109 -2.21921297029234 -33.6923101111471 -4.57559737468164 -48.6266173262781 
                -2.21921297029298 -33.6923101111453 -12.8905294588246 51.806333132238  -4.57546251689548 -136.267628687568 
                -4.57559737468165 -48.6266173262788 -4.57546251689546 -136.267628687568 -5.19119915300204 25.9763406846321 
! Gamma         !               0                50.9897313089929 0                50.9897058243798 0                50.9896900563122 
! Port Impedance490.215947209912 0                490.216192219439 0                490.216343814048 0                

3.176            -12.9214653795998 -135.685809470053 -2.20949650127578 -36.8370277223409 -4.58766381916303 -50.9331568551364 
                -2.20949650127612 -36.8370277223399 -12.9223414916578 48.073934773238  -4.58753792393536 -139.052940222725 
                -4.587663819163  -50.9331568551371 -4.58753792393531 -139.052940222724 -5.16350638338634 24.0041718713921 
! Gamma         !               0                51.2682008265767 0                51.2681754803865 0                51.2681597979651 
! Port Impedance489.127577306497 0                489.127819123578 0                489.127968742926 0                

3.18622222222222 -12.9536702893113 -138.456329959803 -2.19972308129863 -39.9750655574556 -4.59988869816075 -53.2362686392007 
                -2.19972308129869 -39.9750655574552 -12.9544730183925 44.3480263126082 -4.59977171922144 -141.833762673737 
                -4.59988869816069 -53.2362686392014 -4.59977171922135 -141.833762673737 -5.13570685687716 22.0333603043133 
! Gamma         !               0                51.5460564179164 0                51.5460312083533 0                51.5460156104671 
! Port Impedance488.056779567169 0                488.057018260584 0                488.057165947224 0                

3.19644444444444 -12.9861984094881 -141.222595000289 -2.18989222719446 -43.1065375600639 -4.61227496173617 -55.536049061516 
                -2.18989222719427 -43.1065375600641 -12.9869294908286 40.628462672848  -4.61216684258307 -144.610209425053 
                -4.61227496173607 -55.5360490615167 -4.61216684258295 -144.610209425052 -5.10779995514883 20.0638156167331 
! Gamma         !               0                51.8233079578848 0                51.8232828831914 0                51.823267368753  
! Port Impedance487.003140493765 0                487.003376130216 0                487.003521925421 0                

3.20666666666667 -13.0190547088399 -143.984713999716 -2.18000343978668 -46.2315552396173 -4.62482563335297 -57.8325930044962 
                -2.1800034397863 -46.2315552396179 -13.0197163831495 36.915101450766  -4.62472629970865 -147.382391975094 
                -4.62482563335284 -57.8325930044971 -4.6247262997085 -147.382391975093 -5.07978505093681 18.0954483747263 
! Gamma         !               0                52.0999650899157 0                52.099940148372  0                52.0999247163172 
! Port Impedance485.966259557352 0                485.966492201548 0                485.966636145356 0                

3.21688888888889 -13.0522442701223 -146.742794531264 -2.17005620520766 -49.350227750517 -4.637543812098  -60.1259939157562 
                -2.17005620520713 -49.350227750518 -13.052839199955 33.2078027857955 -4.6374531649962 -150.15042001663 
                -4.63754381209786 -60.1259939157572 -4.63745316499603 -150.150420016629 -5.05166150806902 16.128170019215  
! Gamma         !               0                52.3760372332331 0                52.3760124231554 0                52.3759970724425 
! Port Impedance484.945748687688 0                484.945978402421 0                484.946120533682 0                

3.22711111111111 -13.085772295111 -149.496942407809 -2.16004999620902 -52.4626619664042 -4.65043267498681 -62.4163438721036 
                -2.1600499962084 -52.4626619664054 -13.0863034864113 29.5064292366162 -4.6503505846259 -152.914401514452 
                -4.65043267498665 -62.4163438721048 -4.6503505846257 -152.91440151445 -5.02342868150144 14.1618928094899 
! Gamma         !               0                52.651533589797  0                52.6515089095368 0                52.6514936391458 
! Port Impedance483.941231786867 0                483.941458633082 0                483.941598989505 0                

3.23733333333333 -13.1196441098418 -152.247261753764 -2.14998427341779 -55.5689625502424 -4.66349547935838 -64.7037336417787 
                -2.14998427341711 -55.5689625502438 -13.1201148400628 25.8108456663573 -4.66342177982143 -155.67444278043 
                -4.66349547935821 -64.70373364178  -4.66342177982122 -155.674442780428 -4.99508591735685 12.1965297680564 
! Gamma         !               0                52.9264631509791 0                52.926438598922  0                52.926423407854  
! Port Impedance482.952344265812 0                482.952568302681 0                482.952706920876 0                

3.24755555555556 -13.153865170086 -154.993855074142 -2.13985848650409 -58.6692320207129 -4.6767355653641 -66.9882527450258 
                -2.13985848650338 -58.6692320207142 -13.154278923894 22.1209191364537 -4.67667005027194 -158.430648546054 
                -4.67673556536393 -66.9882527450273 -4.67667005027173 -158.430648546052 -4.96663255296593 10.2319946267227 
! Gamma         !               0                53.2008347039808 0                53.2008102785456 0                53.2007951658223 
! Port Impedance481.978732602372 0                481.978953887354 0                481.979090802875 0                

3.25777777777778 -13.1884410670388 -157.736823320973 -2.12967207523506 -61.7635708154044 -4.69015635855568 -69.2699895130832 
                -2.12967207523438 -61.7635708154057 -13.1888014802716 18.4365188090369 -4.69009877769018 -161.183122032546 
                -4.69015635855551 -69.269989513085 -4.69009877768997 -161.183122032544 -4.93806791690983 8.26820177384077 
! Gamma         !               0                53.4746568380065 0                53.4746325376441 0                53.474617502307  
! Port Impedance481.020053919834 0                481.020272508744 0                481.020407756125 0                

3.268            -13.2233775331993 -160.476265957168 -2.11942447039821 -64.8520773512222 -4.70376137257765 -71.549031145669 
                -2.11942447039758 -64.8520773512232 -13.2236883454379 14.7575158576025 -4.70371142948657 -163.931965018672 
                -4.70376137257749 -71.5490311456711 -4.70371142948637 -163.93196501867 -4.90939132906392 6.30506620262494 
! Gamma         !               0                53.7479379502017 0                53.7479137733945 0                53.7478988145046 
! Port Impedance480.075975584756 0                480.076191531823 0                480.076325144616 0                

3.27822222222222 -13.2586804484281 -163.212281017982 -2.10911509458395 -67.9348480824047 -4.71755421196959 -73.8254637670453 
                -2.10911509458338 -67.9348480824054 -13.2589454642684 11.0837833855586 -4.71751156254278 -166.677277906345 
                -4.71755421196944 -73.8254637670476 -4.71751156254259 -166.677277906342 -4.88060210064208 4.3425034604633  
! Gamma         !               0                54.0206862513689 0                54.0206621966295 0                54.0206473132665 
! Port Impedance479.146174823087 0                479.146388181012 0                479.146520191826 0                

3.28844444444444 -13.2943558461699 -165.944965170181 -2.09874336282327 -71.0119775564871 -4.73153857508412 -76.0993724807378 
                -2.0987433628228 -71.0119775564875 -13.2945789050453 7.41519635215899 -4.73150282707154 -169.419159784163 
                -4.731538575084  -76.0993724807404 -4.73150282707137 -169.41915978416 -4.85169953424133 2.38042959914457 
! Gamma         !               0                54.2929097714689 0                54.2928858373395 0                54.2928710286015 
! Port Impedance478.2303383536   0                478.230549173612 0                478.230679614143 0                

3.29866666666667 -13.3304099198348 -168.674413769044 -2.08830868308132 -74.0835584685092 -4.7457182571265 -78.3708414229849 
                -2.08830868308095 -74.083558468509 -13.3305948740392 3.75163150525062 -4.74568897055326 -172.157708488993 
                -4.74571825712639 -78.3708414229878 -4.74568897055312 -172.157708488989 -4.82268292388664 0.418761125925592 
! Gamma         !               0                54.5646163649192 0                54.5645925499707 0                54.5645778149734 
! Port Impedance477.328162037727 0                477.328370369634 0                477.328499270699 0                

3.30888888888889 -13.3668490293342 -171.40072091334 -2.07781045661123 -77.1496817137279 -4.76009715332207 -80.6399538149927 
                -2.07781045661097 -77.1496817137272 -13.3669997297235 0.0929673201926602 -4.76007384174258 -174.893020665718 
                -4.760097153322  -80.6399538149957 -4.76007384174247 -174.893020665714 -4.79355155507589 -1.5425850446404 
! Gamma         !               0                54.8358137156974 0                54.8357900185288 0                54.8357753564054 
! Port Impedance476.439350544938 0                476.439556437178 0                476.439683828749 0                

3.31911111111111 -13.4036797077701 -174.123979498373 -2.06724807817643 -80.2104364390535 -4.77467926221818 -82.906792014065 
                -2.06724807817629 -80.2104364390522 -13.4037999964868 -3.56091605572225 -4.7746613947413 -177.625191825294 
                -4.77467926221815 -82.9067920140683 -4.77466139474122 -177.625191825291 -4.76430470482496 -3.50369163818409 
! Gamma         !               0                55.1065093422588 0                55.1064857614961 0                55.1064711713964 
! Port Impedance475.563617032858 0                475.563820532549 0                475.563946443779 0                

3.32933333333333 -13.4409086682811 -176.844281267249 -2.05662093615142 -83.2659100933981 -4.7894686891273 -85.1714375636827 
                -2.0566209361514 -83.2659100933962 -13.4410023777364 -7.21013685405024 -4.78945569313655 179.645683598778 
                -4.78946868912729 -85.1714375636862 -4.78945569313651 179.645683598782 -4.73494164171326 -5.46464106738602 
! Gamma         !               0                55.3767106022753 0                55.376687136571  0                55.3766726176613 
! Port Impedance474.700682841371 0                474.700883994355 0                474.701008453608 0                

3.33955555555556 -13.4785428110518 -179.561716860458 -2.04592841251309 -86.3161884770893 -4.80446964971839 -87.433971242599 
                -2.04592841251316 -86.316188477087 -13.4786137683205 -10.8548117318867 -4.80446091420565 176.919512195436 
                -4.80446964971842 -87.4339712426026 -4.80446091420563 176.919512195439 -4.70546162592973 -7.42551547829925 
! Gamma         !               0                55.6464246972056 0                55.6464013452379 0                55.6463868967003 
! Port Impedance473.850277199978 0                473.850476050868 0                473.850599085745 0                

3.34977777777778 -13.5165892304915 177.723624136101 -2.03516988273591 -89.3613557904733 -4.81968647376416 -89.6944731130184 
                -2.03516988273608 -89.3613557904705 -13.5166412662225 -14.4950558151657 -4.81968135319144 174.196201522368 
                -4.81968647376422 -89.6944731130221 -4.81968135319146 174.196201522371 -4.67586390931998 -9.38639679619819 
! Gamma         !               0                55.9156586767009 0                55.915635437173  0                55.9156210582052 
! Port Impedance473.012136947764 0                473.012333539983 0                473.012455177353 0                

3.36             -13.5550552225969 175.011653144562 -2.02434471560501 -92.4014946818045 -4.8351236090517 -91.9530225679271 
                -2.02434471560526 -92.4014946818013 -13.5550921835099 -18.1309827392499 -4.835121427654  171.475660053541 
                -4.8351236090518 -91.9530225679309 -4.83512142765407 171.475660053545 -4.64614773543468 -11.3473667710256 
! Gamma         !               0                56.184419442856  0                56.1843963144955 0                56.1843820043103 
! Port Impedance472.186006265316 0                472.186200641139 0                472.186320907159 0                

3.37022222222222 -13.5939482925092 172.302282549872 -2.01345227296119 -95.4366862944991 -4.85078562546476 -94.2096983776395 
                -2.01345227296153 -95.4366862944956 -13.5939740565432 -21.7627046874662 -4.85078568190658 168.757797127828 
                -4.85078562546488 -94.2096983776433 -4.85078568190667 168.757797127831 -4.61631233957997 -13.3085070225076 
! Gamma         !               0                56.4527137543109 0                56.4526907358691 0                56.4526764936938 
! Port Impedance471.371636418008 0                471.371828618604 0                471.371947538745 0                

3.38044444444444 -13.6332761622844 169.595425655844 -2.00249190939234 -98.4670103138   -4.8666772192462 -96.4645787356245 
                -2.00249190939272 -98.4670103137963 -13.6332946554706 -25.3903324281959 -4.86667879154533 166.042522898617 
                -4.86667721924634 -96.4645787356282 -4.86667879154545 166.04252289862  -4.58635694887033 -15.269899085003 