! Touchstone file from project Project1
! Exported from HFSS 2017.1.0
# GHZ S DB R 50.000000
! Modal data exported
! Port[1] = 1:1
! Port[2] = 2:1
! Port[3] = 3:1
2.9              -0.21148658816906 -8.66528404051443 -13.4849497033415 83.5500112591331 -25.6759232493857 64.8275204118573 
                -13.4849497033415 83.5500112591332 -0.377315745326041 -1.59879806058515 -14.1578618605019 -89.1053094741142 
                -25.6759232493856 64.8275204118573 -14.1578618605018 -89.1053094741143 -0.18224923110063 6.45587163577479 
! Gamma         !               0                43.4948914269895 0                43.4948615509823 0                43.494843065829  
! Port Impedance50               0                50               0                50               0                

2.91022222222222 -0.23006525822869 -9.64943298495914 -13.1862404556219 82.3960531750091 -24.4564518184145 66.4298489263103 
                -13.1862404556165 82.3960531749996 -0.39422059998425 -2.55268523426717 -14.1162236359386 -90.2179228572975 
                -24.4564518184146 66.4298489263728 -14.1162236359403 -90.2179228572859 -0.187891831489039 5.82307554364623 
! Gamma         !               0                43.7937725905704 0                43.7937429184594 0                43.7937245594627 
! Port Impedance50               0                50               0                50               0                

2.92044444444444 -0.253309235365382 -10.7176894894606 -12.841308967834 81.1741709223504 -23.2981060086464 67.3616144060196 
                -12.8413089678254 81.1741709223365 -0.416829901061395 -3.54891280505034 -14.030500776937 -91.3896175020961 
                -23.2981060086453 67.3616144061121 -14.0305007769396 -91.3896175020766 -0.196365672889594 5.19348463454599 
! Gamma         !               0                44.0916687640364 0                44.091639292399  0                44.0916210574412 
! Port Impedance50               0                50               0                50               0                

2.93066666666667 -0.282386367682559 -11.8882390557008 -12.4481635094292 79.8640837927267 -22.1822990969097 67.7732137468462 
                -12.4481635094188 79.864083792709  -0.446285748139503 -4.60189715702798 -13.8989889946607 -92.6404751217517 
                -22.1822990969072 67.7732137469483 -13.8989889946638 -92.6404751217265 -0.208129123449943 4.56091373668791 
! Gamma         !               0                44.3885997784829 0                44.3885705039918 0                44.3885523910143 
! Port Impedance50               0                50               0                50               0                

2.94088888888889 -0.318920930224311 -13.183771525354 -12.0042222895624 78.4413289944383 -21.0925863507959 67.7537609132864 
                -12.0042222895515 78.4413289944181 -0.48421030224758 -5.72863722888568 -13.7193992557416 -93.9947067802764 
                -21.0925863507924 67.7537609133809 -13.7193992557449 -93.9947067802486 -0.223855527820806 3.91886378103244 
! Gamma         !               0                44.6845848744854 0                44.6845557939049 0                44.6845378009057 
! Port Impedance50               0                50               0                50               0                

2.95111111111111 -0.365199591126864 -14.6330818460627 -11.5062559584243 76.8755997303085 -20.0144038963704 67.3508752903833 
                -11.5062559584136 76.8755997302882 -0.53290786979867 -6.94969804518525 -13.4888020125676 -95.4823116155129 
                -20.0144038963663 67.3508752904675 -13.4888020125706 -95.4823116154839 -0.244513329310037 3.26031624998304 
! Gamma         !               0                44.9796427256793 0                44.979613835862  0                44.9795959608937 
! Port Impedance50               0                50               0                50               0                

2.96133333333333 -0.42449700688014 -16.273333342046 -10.9503287917835 75.1284326338369 -18.93459033357  66.5810643547149 
                -10.9503287917759 75.1284326338206 -0.595684526738234 -8.29049906132524 -13.2035701879017 -97.1413854056265 
                -18.9345903335649 66.5810643548082 -13.2035701879051 -97.1413854056105 -0.271491055192661 2.57755363534484 
! Gamma         !               0                45.2737914611571 0                45.2737627590402 0                45.2737450002077 
! Port Impedance50               0                50               0                50               0                

2.97155555555556 -0.501603729899291 -18.1533107186127 -10.3317574152055 73.1499139522301 -17.8409319959751 65.4341638943336 
                -10.3317574151969 73.1499139522144 -0.677364128570808 -9.78300504589893 -12.8593397948042 -99.0214094923198 
                -17.8409319959713 65.4341638943928 -12.8593397948065 -99.0214094922909 -0.306793352011037 1.86206624716576 
! Gamma         !               0                45.5670486867523 0                45.5670201693546 0                45.5670025248133 
! Port Impedance50               0                50               0                50               0                

2.98177777777778 -0.603707819798941 -20.3381625451821 -9.64512916916362 70.8739017270046 -16.7218326773032 63.8734128607298 
                -9.64512916915633 70.8739017269899 -0.785143580577775 -11.4678948748663 -12.4510303194953 -101.18802268593 
                -16.7218326772994 63.8734128607742 -12.4510303194971 -101.188022685906 -0.353351795164804 1.104700913682   
! Gamma         !               0                45.859431505278  0                45.8594031696968 0                45.8593856376508 
! Port Impedance50               0                50               0                50               0                

2.992            -0.741917355768754 -22.9163860027678 -8.88447205445483 68.2110079470755 -15.5662053958495 61.8315670009232 
                -8.88447205444913 68.2110079470656 -0.930054384825738 -13.3971383852269 -11.9730168355001 -103.730032022708 
                -15.5662053958466 61.8315670009591 -11.9730168355015 -103.730032022687 -0.415522698886192 0.296431363565829 
! Gamma         !               0                46.1509565357819 0                46.1509283791903 0                46.1509109578903 
! Port Impedance50               0                50               0                50               0                

3.00222222222222 -0.933990236070442 -26.0101345690551 -8.04377492373235 65.0382554480241 -14.3637752072265 59.2026297047201 
                -8.04377492372792 65.0382554480152 -1.12954581687428 -15.6363712677488 -11.4196525470925 -106.769747408234 
                -14.363775207224 59.2026297047464 -11.4196525470934 -106.769747408218 -0.499886215544949 -0.569335018533863 
! Gamma         !               0                46.4416399318747 0                46.4416119515184 0                46.4415946392605 
! Port Impedance50               0                50               0                50               0                

3.01244444444444 -1.20943622596045 -29.7901933178272 -7.11828380098926 61.1840565410394 -13.1062066884798 55.8282371650416 
                -7.11828380098626 61.1840565410331 -1.41221521858239 -18.2646810695357 -10.7865676800896 -110.477992925674 
                -13.1062066884779 55.8282371650569 -10.7865676800902 -110.477992925662 -0.616503711902552 -1.49071450360278 
! Gamma         !               0                46.7314973991856 0                46.7314695923808 0                46.7314523875043 
! Port Impedance50               0                50               0                50               0                

3.02266666666667 -1.61949979925513 -34.4965254713157 -6.10747110044982 56.4075908654574 -11.7899418936102 51.4780109158461 
                -6.10747110044801 56.4075908654536 -1.82677320094599 -21.3637181239482 -10.0736415326554 -115.094717020347 
                -11.7899418936091 51.4780109158554 -10.0736415326557 -115.094717020339 -0.780742244257699 -2.4423199379967 
! Gamma         !               0                47.0205442119952 0                47.0205165761257 0                47.020499477012  
! Port Impedance50               0                50               0                50               0                

3.03288888888889 -2.25772046791638 -40.4618568984722 -5.02146944612193 50.3750648544789 -10.4225316544877 45.8265060735073 
                -5.02146944612108 50.3750648544773 -2.45949581712705 -24.9694459180355 -9.29143943460008 -120.952718805927 
                -10.4225316544872 45.8265060735116 -9.29143943460014 -120.952718805924 -1.01521661666365 -3.33925830906361 
! Gamma         !               0                47.3087952290927 0                47.3087677616078 0                47.3087507666786 
! Port Impedance50               0                50               0                50               0                

3.04311111111111 -3.30503823585536 -48.1224752622234 -3.89403642126818 42.6485103794473 -9.03551975279384 38.4425054425366 
                -3.89403642126814 42.6485103794472 -3.46822306259582 -28.8962522907552 -8.47418099895623 -128.488832472873 
                -9.03551975279375 38.4425054425361 -8.47418099895617 -128.488832472873 -1.34874172119441 -3.95693117774465 
! Gamma         !               0                47.5962649088998 0                47.5962376073119 0                47.596220715028  
! Port Impedance50               0                50               0                50               0                

3.05333333333333 -5.13962813946519 -57.962375623189 -2.80491022895235 32.7402971663628 -7.70673479306449 28.8438941464692 
                -2.80491022895298 32.7402971663645 -5.14218227521604 -32.1072944569909 -7.70209971026034 -138.189394638769 
                -7.70673479306486 28.8438941464669 -7.70209971026016 -138.189394638772 -1.7999840787259 -3.78811748188537 
! Gamma         !               0                47.8829673239039 0                47.882940185786  0                47.8829233946459 
! Port Impedance50               0                50               0                50               0                

3.06355555555556 -8.68228881076747 -70.2689151313002 -1.90436515226515 20.3508166569537 -6.5847947888985 16.7356122266734 
                -1.9043651522663 20.3508166569563 -7.927103305097  -30.338131036372 -7.12600281185499 -150.352536257875 
                -6.58479478889921 16.7356122266694 -7.12600281185481 -150.35253625788 -2.31632079333828 -1.96911870117103 
! Gamma         !               0                48.1689161744359 0                48.1688891974203 0                48.1688725059588 
! Port Impedance50               0                50               0                50               0                

3.07377777777778 -17.6952657980531 -84.5499556967097 -1.39961920842803 5.86553896260015 -5.87547393880282 2.50691369010753 
                -1.39961920842952 5.86553896260398 -11.3175552568745 -9.17079905625669 -6.95368397253215 -164.591096546353 
                -5.87547393880377 2.5069136901024  -6.953683972532  -164.59109654636 -2.67736546518308 2.07265588635132 
! Gamma         !               0                48.4541248018323 0                48.4540979836077 0                48.454081390395  
! Port Impedance50               0                50               0                50               0                

3.084            -17.9376083136405 79.8650505232394 -1.44605230488488 -9.29290186153797 -5.73288769608987 -12.4163943456928 
                -1.44605230488657 -9.29290186153376 -10.054684938081 26.8804888136621 -7.34114714137238 -179.480502561355 
                -5.73288769609094 -12.4163943456979 -7.34114714137226 -179.480502561364 -2.60884170866059 7.034059858688   
! Gamma         !               0                48.7386062010103 0                48.7385795393207 0                48.7385630429607 
! Port Impedance50               0                50               0                50               0                

3.09422222222222 -8.95918893731709 66.0865221797647 -2.01401017494871 -23.2743466608573 -6.12626973711636 -26.1814719986835 
                -2.01401017495044 -23.2743466608528 -6.54094201564738 37.4185715549996 -8.25941698619758 166.831634573832 
                -6.12626973711746 -26.1814719986884 -8.25941698619745 166.831634573822 -2.170193187374  10.4782347349035 
! Gamma         !               0                49.0223730324911 0                49.0223465251332 0                49.0223301242628 
! Port Impedance50               0                50               0                50               0                

3.10444444444444 -5.47425880341155 54.4896836619395 -2.91730536453154 -34.9441173682589 -6.86845082082719 -37.6513605854518 
                -2.91730536453327 -34.9441173682544 -4.23006132693758 35.9449509072478 -9.52304732473648 155.482565430724 
                -6.86845082082833 -37.6513605854565 -9.52304732473646 155.482565430714 -1.65751438596114 11.7495756543147 
! Gamma         !               0                49.3054376338977 0                49.3054112787198 0                49.3053949720075 
! Port Impedance50               0                50               0                50               0                

3.11466666666667 -3.65846452639852 45.3149870683009 -3.95896187951081 -44.1716126924936 -7.76158516552963 -46.693505829727 
                -3.95896187951243 -44.1716126924891 -2.86092905880647 31.9564979273267 -10.9358743179105 146.605870262603 
                -7.76158516553069 -46.6935058297307 -10.9358743179105 146.605870262594 -1.23809658622367 11.6483149822859 
! Gamma         !               0                49.5878120309574 0                49.5877858258574 0                49.5877696120026 
! Port Impedance50               0                50               0                50               0                

3.12488888888889 -2.6047896634034 38.1806166116163 -5.01079388037554 -51.3509151227178 -8.67671396751325 -53.700307383591 
                -5.01079388037701 -51.3509151227139 -2.02995450677984 27.9175459945761 -12.3706049960934 139.810930525065 
                -8.67671396751421 -53.700307383594 -12.3706049960934 139.810930525056 -0.934259328588373 10.9515546110798 
! Gamma         !               0                49.8695079480324 0                49.8694818909563 0                49.8694657686881 
! Port Impedance50               0                50               0                50               0                

3.13511111111111 -1.94887845074466 32.6034134904035 -6.00937649717171 -56.9686377294355 -9.54972354005374 -59.1569196491947 
                -6.00937649717291 -56.968637729432 -1.5038070101347 24.3812623133355 -13.7647994006977 134.615179545398 
                -9.5497235400545 -59.1569196491972 -13.7647994006978 134.615179545391 -0.720912908041784 10.069381938063  
! Gamma         !               0                50.1505368182046 0                50.1505109071459 0                50.1504948752212 
! Port Impedance50               0                50               0                50               0                

3.14533333333333 -1.51760363229284 28.1759513712512 -6.92992915929727 -61.4336218557514 -10.3552180003876 -63.4709123973143 
                -6.92992915929824 -61.4336218557485 -1.15608414349851 21.3943385054688 -15.0947669680723 130.614526661824 
                -10.3552180003883 -63.4709123973163 -15.0947669680725 130.614526661817 -0.57043243672222 9.1750843945718  
! Gamma         !               0                50.4309097929359 0                50.4308840259289 0                50.4308680831366 
! Port Impedance50               0                50               0                50               0                

3.15555555555556 -1.22107746423306 24.5944679233043 -7.76670497206249 -65.0503582323574 -11.0868996673347 -66.945661764101 
                -7.76670497206322 -65.0503582323553 -0.917180420302121 18.880903877613  -16.3559709355959 127.510089518315 
                -11.0868996673351 -66.9456617641022 -16.355970935596 127.51008951831  -0.462409190330369 8.33147856116539 
! Gamma         !               0                50.710637751327  0                50.7106121264553 0                50.7105962716058 
! Port Impedance50               0                50               0                50               0                

3.16577777777778 -1.0095344108687 21.6413207950901 -8.52228167473879 -68.0369293095066 -11.7468524104466 -69.7982679380637 
                -8.52228167473928 -68.0369293095055 -0.747400325878386 16.7496037763583 -17.5523365502928 125.09044642926  
                -11.7468524104469 -69.7982679380641 -17.552336550293 125.090446429257 -0.383191616421276 7.55549184210801 
! Gamma         !               0                50.9897313089929 0                50.9897058243798 0                50.9896900563122 
! Port Impedance50               0                50               0                50               0                

3.176            -0.853925115514154 19.1615790701417 -9.20238377853697 -70.5485651862807 -12.3403573138534 -72.183090783401 
                -9.2023837785372 -70.5485651862797 -0.623206370888418 14.9209294401804 -18.6910928846492 123.20832960209  
                -12.3403573138535 -72.1830907834014 -18.6910928846494 123.208329602088 -0.323851136287181 6.84635887350879 
! Gamma         !               0                51.2682008265767 0                51.2681754803865 0                51.2681597979651 
! Port Impedance50               0                50               0                50               0                

3.18622222222222 -0.73650678427474 17.0440829869536 -9.81353339020385 -72.6966476194218 -12.8735379710213 -74.2107370060106 
                -9.81353339020389 -72.6966476194216 -0.530104135561042 13.331467555965  -19.7804458605591 121.761942757645 
                -12.8735379710212 -74.2107370060104 -19.7804458605592 121.761942757645 -0.278518553056019 6.19727077059823 
! Gamma         !               0                51.5460564179164 0                51.5460312083533 0                51.5460156104671 
! Port Impedance50               0                50               0                50               0                

3.19644444444444 -0.64600894661364 15.2079555442892 -10.3620475934402 -74.5622293670502 -13.3523531292032 -75.9615654354369 
                -10.3620475934401 -74.5622293670507 -0.458851530000227 11.9320089522925 -20.8286002035546 120.681860773935 
                -13.352353129203 -75.9615654354366 -20.8286002035547 120.681860773937 -0.243274930042838 5.60002360793479 
! Gamma         !               0                51.8233079578848 0                51.8232828831914 0                51.823267368753  
! Port Impedance50               0                50               0                50               0                

3.20666666666667 -0.575024258043986 13.5933857819811 -10.8536561684235 -76.205267392171 -13.7822103389941 -77.494908412505 
                -10.8536561684232 -76.2052673921721 -0.403367886284001 10.6845625908369 -21.8434034645056 119.922347465668 
                -13.7822103389938 -77.4949084125042 -21.8434034645056 119.922347465672 -0.215452468589885 5.04676810759434 
! Gamma         !               0                52.0999650899157 0                52.099940148372  0                52.0999247163172 
! Port Impedance50               0                50               0                50               0                

3.21688888888889 -0.518537810107516 12.155389147085  -11.2933973770188 -77.6708719832303 -14.1678582344625 -78.8553109167579 
                -11.2933973770184 -77.670871983232 -0.359539477786009 9.55966462595081 -22.8322682462043 119.455838020506 
                -14.1678582344622 -78.8553109167573 -22.8322682462044 119.45583802051  -0.193198414885041 4.53057406462281 
! Gamma         !               0                52.3760372332331 0                52.3760124231554 0                52.3759970724425 
! Port Impedance50               0                50               0                50               0                

3.22711111111111 -0.4730656410669 10.8595635555039 -11.6856327359249 -78.9935565350301 -14.5133982822411 -80.0767718400791 
                -11.6856327359243 -78.9935565350319 -0.324513946642163 8.53425583778226 -23.8022101884775 119.269669868606 
                -14.5133982822408 -80.0767718400795 -23.8022101884776 119.269669868613 -0.175201031067021 4.04552328048212 
! Gamma         !               0                52.651533589797  0                52.6515089095368 0                52.6514936391458 
! Port Impedance50               0                50               0                50               0                

3.23733333333333 -0.436132513366375 9.67917069308682 -12.0341075406145 -80.2001600743264 -14.8223426932993 -81.1856592205566 
                -12.0341075406139 -80.2001600743282 -0.296270409275799 7.59008387544059 -24.7599218008921 119.364486802116 
                -14.822342693299 -81.1856592205574 -24.7599218008921 119.364486802125 -0.160514844112295 3.58662833985723 
! Gamma         !               0                52.9264631509791 0                52.926438598922  0                52.926423407854  
! Port Impedance50               0                50               0                50               0                

3.24755555555556 -0.405945539030221 8.59310046035958 -12.3420240290526 -81.3118854699628 -15.0976853291893 -82.2027421581015 
                -12.342024029052 -81.311885469965 -0.273350007692849 6.71251944663238 -25.7118362359718 119.754010042888 
                -15.0976853291889 -82.2027421581013 -25.7118362359718 119.754010042898 -0.14844722631515 3.14969975752778 
! Gamma         !               0                53.2008347039808 0                53.2008102785456 0                53.2007951658223 
! Port Impedance50               0                50               0                50               0                

3.25777777777778 -0.381184584232252 7.58442958720067 -12.6121128401603 -82.3457427641812 -15.3419712103063 -83.1446286707726 
                -12.6121128401598 -82.3457427641841 -0.25468264125188 5.88968101981069 -26.6641425176523 120.46607697602  
                -15.3419712103059 -83.1446286707716 -26.6641425176526 120.46607697603  -0.138483424467395 2.73121008125031 
! Gamma         !               0                53.4746568380065 0                53.4746325376441 0                53.474617502307  
! Port Impedance50               0                50               0                50               0                

3.268            -0.360864380620449 6.63938488685754 -12.8466971577722 -83.3155874230225 -15.5573589774994 -84.024799143985 
                -12.8466971577717 -83.3155874230249 -0.239472954542202 5.11178446375694 -27.6227014344273 121.54501369521  
                -15.557358977499 -84.0247991439846 -27.6227014344276 121.54501369522  -0.130236112112602 2.32817228642218 
! Gamma         !               0                53.7479379502017 0                53.7479137733945 0                53.7478988145046 
! Port Impedance50               0                50               0                50               0                

3.27822222222222 -0.344241862507875 5.74658566869274 -13.0477479250126 -84.2328791485903 -15.7456746591829 -84.854360894843 
                -13.0477479250121 -84.2328791485929 -0.227123770282528 4.37065553486709 -28.5927763531782 123.055534005738 
                -15.7456746591827 -84.8543608948428 -28.5927763531788 123.055534005748 -0.123410869541089 1.93803683606386 
! Gamma         !               0                54.0206862513689 0                54.0206621966295 0                54.0206473132665 
! Port Impedance50               0                50               0                50               0                

3.28844444444444 -0.330752742031478 4.89648119348351 -13.2169302590442 -85.1072454729544 -15.9084568466505 -85.6426079707292 
                -13.2169302590437 -85.1072454729552 -0.217183751332054 3.65936023432345 -29.5784236488749 125.088399474806 
                -15.9084568466504 -85.64260797073  -29.5784236488761 125.088399474814 -0.117782199792389 1.55860669231267 
! Gamma         !               0                54.2929097714689 0                54.2928858373395 0                54.2928710286015 
! Port Impedance50               0                50               0                50               0                

3.29866666666667 -0.319967430574456 4.08092598174187 -13.3556418789232 -85.9469073933036 -16.0469940677149 -86.3974433569431 
                -13.355641878923 -85.9469073933042 -0.209311096699416 2.97192069894176 -30.5812616289524 127.767865708588 
                -16.0469940677145 -86.3974433569432 -30.5812616289539 127.767865708599 -0.113176642025199 1.18796784321256 
! Gamma         !               0                54.5646163649192 0                54.5645925499707 0                54.5645778149734 
! Port Impedance50               0                50               0                50               0                

3.30888888888889 -0.311560052721869 3.29285349400538 -13.4650445494663 -86.759006580311 -16.1623553428911 -87.1257030528157 
                -13.4650445494656 -86.7590065803118 -0.203248084183992 2.30309333435338 -31.5981297655635 131.260015346242 
                -16.1623553428919 -87.1257030528145 -31.598129765565 131.260015346258 -0.109460753929383 0.824432579870407 
! Gamma         !               0                54.8358137156974 0                54.8357900185288 0                54.8357753564054 
! Port Impedance50               0                50               0                50               0                

3.31911111111111 -0.305286525494529 2.52602047326526 -13.5460895155741 -87.5498619096513 -16.2554148832579 -87.8334097034898 
                -13.5460895155719 -87.5498619096451 -0.198803118014488 1.64819227940409 -32.6168771954929 135.778320412478 
                -16.2554148832621 -87.8334097035309 -32.616877195495 135.778320412482 -0.106532498022757 0.466492962714122 
! Gamma         !               0                55.1065093422588 0                55.1064857614961 0                55.1064711713964 
! Port Impedance50               0                50               0                50               0                

3.32933333333333 -0.300969072063027 1.77480213997847 -13.59953778524  -88.3251751610523 -16.3268717758081 -88.525975576798 
                -13.5995377852404 -88.3251751610515 -0.195838099686334 1.00294576088218 -33.6094113380121 141.576012679945 
                -16.3268717758074 -88.5259755767954 -33.6094113380149 141.576012679967 -0.104315056742511 0.112782281121653 
! Gamma         !               0                55.3767106022753 0                55.376687136571  0                55.3766726176613 
! Port Impedance50               0                50               0                50               0                

3.33955555555556 -0.298485437429477 1.03402376848134 -13.6259759765756 -89.0902003896317 -16.3772653616706 -89.2083693393221 
                -13.6259759765756 -89.0902003896314 -0.194259687338376 0.363376012971846 -34.5221233385428 148.901960666006 
                -16.3772653616707 -89.2083693393218 -34.5221233385453 148.901960666032 -0.102752422165312 -0.23795731445493 
! Gamma         !               0                55.6464246972056 0                55.6464013452379 0                55.6463868967003 
! Port Impedance50               0                50               0                50               0                

3.34977777777778 -0.297761668153292 0.298817784936344 -13.6258283014906 -89.8498878642865 -16.4069868724297 -89.8852574825944 
                -13.6258283014908 -89.8498878642862 -0.194013504236173 -0.274304413523168 -35.2681120868026 157.88448930048  
                -16.4069868724297 -89.8852574825938 -35.2681120868049 157.88448930051  -0.101806321135388 -0.586902501150085 
! Gamma         !               0                55.9156586767009 0                55.915635437173  0                55.9156210582052 
! Port Impedance50               0                50               0                50               0                

3.36             -0.298767726340763 -0.435502054470124 -13.5993651270541 -90.6090110543829 -16.4162877597918 -90.561128836052 
                -13.5993651270544 -90.6090110543824 -0.195080697528449 -0.913785674166881 -35.7345975815989 168.334803380543 
                -16.4162877597919 -90.5611288360512 -35.7345975816007 168.334803380579 -0.101454184678766 -0.935173021378061 
! Gamma         !               0                56.184419442856  0                56.1843963144955 0                56.1843820043103 
! Port Impedance50               0                50               0                50               0                

3.37022222222222 -0.301515502988871 -1.17355627940964 -13.546708437299 -91.3722835865516 -16.4052850378863 -91.2404090481616 
                -13.5467084372994 -91.3722835865501 -0.197476495359427 -1.55874777501926 -35.8217933256101 179.589594154414 
                -16.4052850378865 -91.2404090481614 -35.821793325611 179.589594154453 -0.101687976729729 -1.28385349412631 
! Gamma         !               0                56.4527137543109 0                56.4526907358691 0                56.4526764936938 
! Port Impedance50               0                50               0                50               0                

3.38044444444444 -0.306059025395272 -1.92001106187832 -13.4678344131583 -92.1444721774625 -16.373963853978 -91.9275710000023 
                -13.4678344131586 -92.1444721774604 -0.201250603836157 -2.21294610078436 -35.5001861745175 -169.360875907766 