! Exported from HFSS 15.0.0
# GHZ S MA R 50.000000
! Terminal data exported
! Port[1] = B1_T1
! Port[2] = C1_T1
! Port[3] = E1_T1
! Port[4] = F1_T1
! Port[5] = A2_T1
! Port[6] = B2_T1
! Port[7] = D2_T1
! Port[8] = E2_T1
! Port[9] = B3_T1
! Port[10] = C3_T1
! Port[11] = E3_T1
! Port[12] = F3_T1
! Port[13] = A4_T1
! Port[14] = B4_T1
! Port[15] = D4_T1
! Port[16] = E4_T1
! Port[17] = B1_T2
! Port[18] = C1_T2
! Port[19] = E1_T2
! Port[20] = F1_T2
! Port[21] = A2_T2
! Port[22] = B2_T2
! Port[23] = D2_T2
! Port[24] = E2_T2
! Port[25] = B3_T2
! Port[26] = C3_T2
! Port[27] = E3_T2
! Port[28] = F3_T2
! Port[29] = A4_T2
! Port[30] = B4_T2
! Port[31] = D4_T2
! Port[32] = E4_T2
0                4.34171382294526E-005 0                1.37615858183896E-005 0                2.4366907976428E-006 0                2.19425436634186E-006 0                
                5.97199356806334E-006 0                8.32490065407615E-006 0                3.03140040417002E-006 0                1.85783349766419E-006 0                
                1.54878359835101E-006 0                1.20390515810252E-006 0                5.20155942238237E-007 0                6.02246372351711E-007 0                
                1.67151758540939E-006 0                1.09593484778664E-006 0                3.50552704866665E-007 0                3.35806935606025E-007 0                
                0.999929839247784 0                1.17976464529962E-005 180              2.43285202727091E-006 180              2.16735410368081E-006 180              
                5.92208617973978E-006 180              8.1474604688974E-006 180              3.00811875543179E-006 180              1.84273927611119E-006 180              
                1.54687859342507E-006 180              1.20664495533557E-006 180              5.16444608550869E-007 180              6.10301741568427E-007 180              
                1.67059382064983E-006 180              1.0944651632767E-006 180              3.49253960376837E-007 180              3.36724780650893E-007 180              
                1.3887256021583E-005 0                1.53145264520371E-005 0                3.8077719999338E-006 0                3.19273445197575E-006 0                
                3.66447297998982E-006 0                4.70515128875131E-006 0                5.86502637783901E-006 0                3.36718278147116E-006 0                
                1.20381252281072E-006 0                1.14029822257289E-006 0                7.38511689500794E-007 0                8.43923090052467E-007 0                
                1.15908829242473E-006 0                8.02222981865987E-007 0                3.47589414471212E-007 0                3.77443880442791E-007 0                
                1.17753823271269E-005 180              0.999923377674008 0                3.71335725499232E-006 180              3.18425854673897E-006 180              
                3.65727367620085E-006 180              4.69899451863761E-006 180              5.69727373328326E-006 180              3.34916335653287E-006 180              
                1.20256924407511E-006 180              1.14076059126939E-006 180              7.40875035295466E-007 180              8.45194118805309E-007 180              
                1.15663776987292E-006 180              8.03629912501241E-007 180              3.49548576860823E-007 180              3.76771308810018E-007 180              
                2.44265124722809E-006 0                3.79524933853291E-006 0                5.2596530042151E-005 0                2.26020047030366E-005 0                
                8.99608865832704E-007 0                9.26275392476778E-007 0                4.94021906136555E-006 0                9.03994807383533E-006 0                
                4.58889810620261E-007 0                6.36606837809209E-007 0                2.24301245916811E-006 0                3.28875501725591E-006 0                
                4.33027850141017E-007 0                3.40193326792224E-007 0                5.15897066901913E-007 0                7.52522165743067E-007 0                
                2.43167459989093E-006 180              3.73978034574592E-006 180              0.999897740329061 0                1.89545714424609E-005 180              
                9.01332135132748E-007 180              9.27547542890652E-007 180              4.85234679659368E-006 180              8.93709353304815E-006 180              
                4.59561883857059E-007 180              6.36458778503725E-007 180              2.23795296832967E-006 180              3.2949302138964E-006 180              
                4.33427439535143E-007 180              3.39831063878276E-007 180              5.16295802399061E-007 180              7.48082070634753E-007 180              
                2.18132975129135E-006 0                3.19934215228714E-006 0                2.25355565248789E-005 0                3.83723008540865E-005 0                
                8.76401741488298E-007 0                8.651418129949E-007 0                3.74196371678501E-006 0                6.76047896864401E-006 0                
                4.48998367538278E-007 0                6.23316718095595E-007 0                3.15720730527987E-006 0                5.4125907204567E-006 0                
                5.16591479297012E-007 0                4.27925278136555E-007 0                8.26981322446258E-007 0                1.24655581081826E-006 0                
                2.1771694243989E-006 180              3.16799815024572E-006 180              1.93963350941448E-005 180              0.999892002929528 0                
                8.75892414871826E-007 180              8.64343625525546E-007 180              3.70099926507534E-006 180              6.59072057910843E-006 180              
                4.49927158663018E-007 180              6.19985417922922E-007 180              3.15075142972221E-006 180              5.24628402857018E-006 180              
                5.16250532246309E-007 180              4.27460911452343E-007 180              8.23419828892519E-007 180              1.24728602382117E-006 180              
                5.99019950266785E-006 0                3.67138131404697E-006 0                9.0345847646243E-007 0                8.71328801284104E-007 0                
                3.19093988030428E-005 0                1.08693135824171E-005 0                1.37745041769392E-006 0                8.29394097740595E-007 0                
                4.17017227475301E-006 0                2.50834750344878E-006 0                4.620576365004E-007 0                4.33966789109368E-007 0                
                5.5061593149993E-006 0                3.5629603655188E-006 0                9.46335782589275E-007 0                6.97571782793554E-007 0                
                5.91079536853365E-006 180              3.6582345362959E-006 180              9.01354962920802E-007 180              8.81178412249486E-007 180              
                0.999936178622079 0                9.07204873917822E-006 180              1.36878727629327E-006 180              8.27237574378367E-007 180              
                4.05379976521365E-006 180              2.46621379955533E-006 180              4.59629690590594E-007 180              4.38095144153418E-007 180              
                5.44653522543438E-006 180              3.56198718425233E-006 180              9.46227821101435E-007 180              6.96119225910619E-007 180              
                8.34799066397676E-006 0                4.79894240736252E-006 0                9.27042765069656E-007 0                8.6544642991784E-007 0                
                1.09033688892035E-005 0                6.65055870070763E-006 0                2.15486525521631E-006 0                1.17548909090489E-006 0                
                4.52890623358834E-006 0                3.08992495546634E-006 0                5.37836759250537E-007 0                4.65977542267676E-007 0                
                3.5377239890398E-006 0                2.5778958535564E-006 0                7.98221380142071E-007 0                5.76487574749309E-007 0                
                8.10417877059912E-006 180              4.75099553763885E-006 180              9.21455717065511E-007 180              8.65150740290326E-007 180              
                9.10326468598135E-006 180              0.999941371018963 0                2.07451400519249E-006 180              1.1716127355278E-006 180              
                4.29366507929529E-006 180              2.99013457990931E-006 180              5.36583861438563E-007 180              4.67397387535564E-007 180              
                3.52470421469348E-006 180              2.57392701253625E-006 180              7.9975272852654E-007 180              5.77590860331018E-007 180              
                3.00829724684312E-006 0                5.68068475350833E-006 0                4.93544342635745E-006 0                3.71431659064838E-006 0                
                1.38457333927373E-006 0                2.13685598898132E-006 0                1.52724420568323E-005 0                1.49300942044218E-005 0                
                2.0491797937507E-006 0                3.26444098032539E-006 0                3.1171407970116E-006 0                2.49974706344799E-006 0                
                8.3287309321587E-007 0                8.31323359169918E-007 0                9.71490749013476E-007 0                1.02669442315927E-006 0                
                3.00953283588522E-006 180              5.70219107826411E-006 180              4.88586225135066E-006 180              3.7198716802086E-006 180              
                1.36631106060266E-006 180              2.07790731568316E-006 180              0.999918466265171 0                1.30120677841947E-005 180              
                2.0184743291568E-006 180              3.1436734075547E-006 180              3.02880895050118E-006 180              2.49084688451863E-006 180              
                8.30574046971583E-007 180              8.26877014168097E-007 180              9.78959849309196E-007 180              1.02313486514624E-006 180              
                1.85822995453413E-006 0                3.34460912881441E-006 0                9.09607436381903E-006 0                6.67220907103229E-006 0                
                8.33454307429238E-007 0                1.18399196607469E-006 0                1.48460389521321E-005 0                2.72789046139726E-005 0                
                1.2913377428704E-006 0                2.1611191687379E-006 0                4.67901957845133E-006 0                4.23745677536735E-006 0                
                6.21822907707383E-007 0                6.31215401727231E-007 0                1.10297725115088E-006 0                1.42558305177331E-006 0                
                1.85811688983915E-006 180              3.33625825670297E-006 180              8.97198642563213E-006 180              6.6438910504632E-006 180              
                8.21454074751674E-007 180              1.18348009429058E-006 180              1.30873016376369E-005 180              0.999913734175266 0                
                1.2780532491249E-006 180              2.09617794374832E-006 180              4.44913907223215E-006 180              4.13095918387358E-006 180              
                6.21567082452631E-007 180              6.33298255112006E-007 180              1.11292465165293E-006 180              1.42347061547407E-006 180              
                1.54971575053761E-006 0                1.20453391901998E-006 0                4.58820468013192E-007 0                4.51033316381879E-007 0                
                4.16409663856355E-006 0                4.51558678846511E-006 0                2.06098246922784E-006 0                1.28648573537258E-006 0                
                2.77583059087594E-005 0                1.19080366969872E-005 0                1.04301612319701E-006 0                7.09211187556263E-007 0                
                6.47067184942045E-006 0                8.76511934495838E-006 0                3.25055920374082E-006 0                1.97767873170887E-006 0                
                1.54943829372813E-006 180              1.20168316448325E-006 180              4.5910256792547E-007 180              4.4810432747684E-007 180              
                4.06501450193626E-006 180              4.28839813246262E-006 180              1.998073230268E-006 180              1.28292574840005E-006 180              
                0.999933544620717 0                9.99766087687697E-006 180              1.02706271246588E-006 180              7.12644242158037E-007 180              
                6.41944163516563E-006 180              8.46476284328823E-006 180              3.22716289232567E-006 180              1.96828364507616E-006 180              
                1.2102499066676E-006 0                1.13988364150745E-006 0                6.35927771307611E-007 0                6.29340113426284E-007 0                
                2.49492745712284E-006 0                3.10375051028712E-006 0                3.26675268645096E-006 0                2.14576460368359E-006 0                
                1.18989293703062E-005 0                4.44985753310784E-005 0                2.07683758062958E-006 0                1.33079500486783E-006 0                
                3.76662266268887E-006 0                4.86878057105126E-006 0                5.95799146052914E-006 0                3.37137696432201E-006 0                
                1.2074617722342E-006 180              1.13743926718189E-006 180              6.36677060534088E-007 180              6.17292707092787E-007 180              
                2.4609969658286E-006 180              2.98758358613111E-006 180              3.12459976854577E-006 180              2.11507562800041E-006 180              
                1.00051854631505E-005 180              0.999927048679524 0                2.01500728647433E-006 180              1.32598885569345E-006 180              
                3.74673198199607E-006 180              4.80092111943432E-006 180              5.78687779936773E-006 180              3.34961107543346E-006 180              
                5.23752830124027E-007 0                7.41982368767996E-007 0                2.24233476886276E-006 0                3.15974837818405E-006 0                
                4.6017190055475E-007 0                5.38924921602972E-007 0                3.11631199380238E-006 0                4.72891398567866E-006 0                
                1.04134322108959E-006 0                2.07714095229244E-006 0                3.30905242309221E-005 0                1.87234208455303E-005 0                
                8.05690125605415E-007 0                8.46826824981405E-007 0                4.96660499453398E-006 0                9.03554087233055E-006 0                
                5.18576748950381E-007 180              7.39797553053582E-007 180              2.24437018570434E-006 180              3.16285251864522E-006 180              
                4.59807151871887E-007 180              5.33648489877293E-007 180              3.02813889212867E-006 180              4.47079881463978E-006 180              
                1.03616007514633E-006 180              2.0292786395953E-006 180              0.999902089618786 0                1.57876749214692E-005 180              
                8.00939717362538E-007 180              8.45724487769334E-007 180              4.84587663142615E-006 180              8.85936679751072E-006 180              
                6.12297675014724E-007 0                8.47265472838591E-007 0                3.29709029520337E-006 0                5.41489768425898E-006 0                
                4.37445673065451E-007 0                4.66593142310948E-007 0                2.49838804922478E-006 0                4.2304201486789E-006 0                
                7.11197289492171E-007 0                1.32885643411101E-006 0                1.87146710088973E-005 0                7.85311923038462E-005 0                
                8.02349638265548E-007 0                8.07605963180805E-007 0                3.77200592712075E-006 0                6.53570778070753E-006 0                
                6.08320760218332E-007 180              8.47676773072154E-007 180              3.28621860264285E-006 180              5.26322913294106E-006 180              
                4.3534498715838E-007 180              4.65964308969538E-007 180              2.47389814330258E-006 180              4.11880590206904E-006 180              
                7.10526396076479E-007 180              1.31733078060064E-006 180              1.57749241842253E-005 180              0.999894436624231 0                
                8.05089356775007E-007 180              8.05494176248523E-007 180              3.75367487693082E-006 180              6.48903576863993E-006 180              
                1.66800874901478E-006 0                1.15923535100012E-006 0                4.32913035971886E-007 0                5.16869249991316E-007 0                
                5.4978750849248E-006 0                3.53271557703783E-006 0                8.328355283224E-007 0                6.21203104447235E-007 0                
                6.51443138568759E-006 0                3.76943399843597E-006 0                8.06026443742926E-007 0                8.04245406843475E-007 0                
                3.16075413886729E-005 0                1.46359941358525E-005 0                3.40017360768658E-006 0                2.4488342590741E-006 0                
                1.67571002638364E-006 180              1.15369494253325E-006 180              4.33484786782807E-007 180              5.15913488228993E-007 180              
                5.45942648103818E-006 180              3.5286006404029E-006 180              8.31290288290658E-007 180              6.22059124880158E-007 180              
                6.36957380850851E-006 180              3.76363050682942E-006 180              8.00100707964665E-007 180              8.04144917985789E-007 180              
                0.999939273125847 0                1.25895766417312E-005 180              3.38649788899324E-006 180              2.43168424176286E-006 180              
                1.09638290168878E-006 0                8.02688980645915E-007 0                3.38566293818488E-007 0                4.28667543467568E-007 0                
                3.56490391457487E-006 0                2.58234228906742E-006 0                8.304843221379E-007 0                6.32563721169222E-007 0                
                8.74392615295844E-006 0                4.89654514993811E-006 0                8.47903134818342E-007 0                7.96852569952744E-007 0                
                1.47878328175914E-005 0                9.17634895342828E-006 0                3.98446200397702E-006 0                2.72252349278138E-006 0                
                1.09275841281178E-006 180              8.03506097807284E-007 180              3.40382029583519E-007 180              4.22678213775536E-007 180              
                3.5554767286723E-006 180              2.5806231162208E-006 180              8.28300263892986E-007 180              6.30654906363026E-007 180              
                8.54633477109963E-006 180              4.83502565670237E-006 180              8.44175983351759E-007 180              8.05070533044456E-007 180              
                1.25539241721574E-005 180              0.999932662913125 0                3.89832160061984E-006 180              2.73427296274085E-006 180              
                3.49995680549802E-007 0                3.48943793167375E-007 0                5.1770703744325E-007 0                8.28494377821802E-007 0                
                9.46943234320444E-007 0                8.00967370440499E-007 0                9.80991824003062E-007 0                1.11558555099755E-006 0                
                3.25537718654087E-006 0                5.94840372443624E-006 0                4.93282477283599E-006 0                3.76432459492457E-006 0                
                3.40322942817385E-006 0                4.04639249745355E-006 0                2.36490350045554E-005 0                1.70834284504845E-005 0                
                3.50157187078222E-007 180              3.48104933143071E-007 180              5.14066535736897E-007 180              8.24892245306357E-007 180              
                9.47573070343298E-007 180              7.99114038148286E-007 180              9.81083922544203E-007 180              1.11265691728223E-006 180              
                3.23073469326272E-006 180              5.83679810846338E-006 180              4.88539293600366E-006 180              3.75489246565424E-006 180              
                3.38297050875682E-006 180              3.90987875362094E-006 180              0.999939995060231 0                1.50978674475308E-005 180              
                3.36917130457819E-007 0                3.77461627208491E-007 0                7.52649825738489E-007 0                1.25221833532723E-006 0                
                6.98135002749796E-007 0                5.76644771083166E-007 0                1.02875377161536E-006 0                1.42419246906421E-006 0                
                1.97935410144938E-006 0                3.38748684216563E-006 0                9.04823056244175E-006 0                6.53346799577275E-006 0                
                2.44622633533949E-006 0                2.74117959601656E-006 0                1.70780756490567E-005 0                1.91443335977731E-005 0                
                3.35430413612049E-007 180              3.76739528181326E-007 180              7.45755223404668E-007 180              1.24197287154431E-006 180              
                6.95800452661611E-007 180              5.7578569103323E-007 180              1.02254225241825E-006 180              1.42632677144704E-006 180              
                1.97867534640025E-006 180              3.36117674276095E-006 180              8.81576546996228E-006 180              6.48080897151966E-006 180              
                2.44372682330421E-006 180              2.70509445555837E-006 180              1.51045443249152E-005 180              0.999916496442665 0                
                0.999929846205191 0                1.18042688739724E-005 180              2.43293953661444E-006 180              2.16741172782585E-006 180              
                5.91885485004984E-006 180              8.13716450598703E-006 180              3.01681208391942E-006 180              1.85270100691842E-006 180              
                1.54696658264688E-006 180              1.20651336155586E-006 180              5.14116014579036E-007 180              6.10255609268624E-007 180              
                1.66993823631084E-006 180              1.09583451954657E-006 180              3.49112124349918E-007 180              3.36909849630185E-007 180              
                7.17570938190068E-005 0                1.38111184136251E-005 0                2.43425589982081E-006 0                2.19069303350472E-006 0                
                5.9749225454651E-006 0                8.33403882084804E-006 0                3.032289861937E-006 0                1.85182923711862E-006 0                
                1.54850574220862E-006 0                1.20350052010059E-006 0                5.19786966116337E-007 0                6.04129397007509E-007 0                
                1.67085477575024E-006 0                1.09536993727027E-006 0                3.50417819868366E-007 0                3.35549803350975E-007 0                
                1.17707001791277E-005 180              0.999923378374092 0                3.71133971958058E-006 180              3.18394078609001E-006 180              
                3.65533820172355E-006 180              4.71766089297793E-006 180              5.70922354681171E-006 180              3.35872177359767E-006 180              
                1.20264077663082E-006 180              1.14070870313953E-006 180              7.40664554205444E-007 180              8.45102757741738E-007 180              
                1.15468648214279E-006 180              8.03762186707478E-007 180              3.49687143227321E-007 180              3.76873837032205E-007 180              
                1.38614655508344E-005 0                0.000105349920179854 0                3.8047636810078E-006 0                3.19044515480855E-006 0                
                3.66368763369358E-006 0                4.73213309019199E-006 0                5.86092651193131E-006 0                3.36227789719768E-006 0                
                1.20362444322886E-006 0                1.14014293259323E-006 0                7.3737684206938E-007 0                8.42198594376217E-007 0                
                1.15860189329282E-006 0                8.02053014238341E-007 0                3.47764377337456E-007 0                3.77284625096522E-007 0                
                2.43068328223536E-006 180              3.74043580788188E-006 180              0.999897746574675 0                1.90314588681337E-005 180              
                8.98543672214281E-007 180              9.26859909485575E-007 180              4.85383567088056E-006 180              8.97228038806465E-006 180              
                4.58347419005675E-007 180              6.36429411269277E-007 180              2.23795308534761E-006 180              3.29445141351685E-006 180              
                4.33417452959774E-007 180              3.39439562615986E-007 180              5.16723979395795E-007 180              7.47335075632657E-007 180              
                2.44117229331606E-006 0                3.79214400023434E-006 0                0.000152525431109357 0                2.25532510781008E-005 0                
                8.98305891299965E-007 0                9.26118028178754E-007 0                4.92043247812997E-006 0                9.04650099148481E-006 0                
                4.58795069501014E-007 0                6.36523782351407E-007 0                2.24191446885269E-006 0                3.28824573990298E-006 0                
                4.32991023364797E-007 0                3.40097255787557E-007 0                5.15980337543922E-007 0                7.52076336070625E-007 0                
                2.17746421127046E-006 180              3.18055370708255E-006 180              1.94054347558703E-005 180              0.999892000390673 0                
                8.76157555905737E-007 180              8.64645689675932E-007 180              3.69974081515772E-006 180              6.5837102943278E-006 180              
                4.47014740230078E-007 180              6.19989285812546E-007 180              3.15290916295258E-006 180              5.24626359537077E-006 180              
                5.16277178559124E-007 180              4.27354582789184E-007 180              8.23263035720648E-007 180              1.2501021934108E-006 180              
                2.1800232180842E-006 0                3.1973192998868E-006 0                2.25122101455248E-005 0                0.000160199952441126 0                
                8.76251141962718E-007 0                8.65333992488789E-007 0                3.74272718199967E-006 0                6.79198301015756E-006 0                
                4.49196743058662E-007 0                6.23191715665313E-007 0                3.15600547616578E-006 0                5.4067248059439E-006 0                
                5.16516020140619E-007 0                4.27794624079103E-007 0                8.27068702666722E-007 0                1.24680175144832E-006 0                
                5.90006596040606E-006 180              3.65851648616213E-006 180              9.02108779172192E-007 180              8.75852889210544E-007 180              
                0.99993617929897 0                9.08739123086678E-006 180              1.36880063812987E-006 180              8.27580750011677E-007 180              
                4.06034411025956E-006 180              2.46437993673418E-006 180              4.59705868659168E-007 180              4.37514352007434E-007 180              
                5.44691368239199E-006 180              3.56286966537956E-006 180              9.46449137795031E-007 180              6.96041208669948E-007 180              
                5.96316985980016E-006 0                3.6697363997194E-006 0                9.0275035683797E-007 0                8.70365337238038E-007 0                
                2.7669465834719E-005 0                1.11156132021201E-005 0                1.37516648162912E-006 0                8.28917824801322E-007 0                
                4.17141349317619E-006 0                2.50742376351832E-006 0                4.61724914943768E-007 0                4.31416372785869E-007 0                
                5.50588484871713E-006 0                3.56200167275691E-006 0                9.4563904190232E-007 0                6.96838830921615E-007 0                
                8.0805180987225E-006 180              4.75030988243957E-006 180              9.21439166438973E-007 180              8.6420917409292E-007 180              
                9.09444950462045E-006 180              0.99994133688665 0                2.07477100398843E-006 180              1.17132194940106E-006 180              