! Touchstone file exported from HFSS Original with power definition
! Design: HFSSDesign1
! Project:
! Setup: Setup1
! Solution: Sweep1
! Variables:
! XX = 3
! YY = 1
!Data is not renormalized
!
! Created with skrf 1.10.0 (http://scikit-rf.org).
! Data is not renormalized
! S-parameter uses the power definition
# GHz S RI R
! Port[1] = 1
!freq ReS11 ImS11
!
29.5 -0.35405022547854376 -0.25487435607686554
! Port Impedance 30.00000000000000 -10.00000000000000
37.0 -0.24739933815826692 0.6386340944068366
! Port Impedance 20.00000000000000 10.00000000000000
