! Touchstone file from project tmp
! Exported from HFSS 15.0.0
!Data is not renormalized
# GHZ S MA
! Modal data exported
! Port[1] = p1:1
! Port[2] = p2:1
500              2.04585345223183E-005 -118.344883995224 0.809574370047268 -63.7607852221241 0.809574370047415 -63.7607852221244 1.3311585914169E-005 171.303214995114 
! Gamma  !      8.31685936967069 6475.4136388958  8.31679613688933 6475.42075880595 
! Port Impedance  375.968827896247 0.5187697856873  375.975352388418 0.518947559778336 

500.625          2.03404254139412E-005 -117.715058486137 0.80998238261904 -94.5904186276136 0.809982382619334 -94.5904186276128 1.33988928491755E-005 109.095494947793 
! Gamma  !      8.29738319605731 6496.59815312035 8.29732012634914 6496.60524972004 
! Port Impedance  375.210907676519 0.515384489643703 375.217432920601 0.51556108512771 

501.25           2.0221301458691E-005 -117.08498893307 0.810386034254168 -125.358213227613 0.810386034254603 -125.358213227611 1.34844814663852E-005 46.891721975038  
! Gamma  !      8.27809730341547 6517.74014752915 8.27803439465002 6517.74722101599 
! Port Impedance  374.460356324951 0.512050289170976 374.466882236811 0.512225712355396 

501.875          2.01011460817335E-005 -116.454587316633 0.810785405817792 -156.064766877762 0.810785405818363 -156.064766877759 1.35603783397895E-005 -15.3115420545106 
! Gamma  !      8.25899893380454 6538.84003453906 8.25893618388943 6538.84708510785 
! Port Impedance  373.717064150601 0.508766165059956 373.72359064864  0.508940422183058 

502.5            1.99799432024439E-005 -115.823764175627 0.811180576343098 173.28933137858  0.811180576343798 173.289331378583 1.36182417110844E-005 -77.5048205917787 
! Gamma  !      8.24008538459869 6559.89822044483 8.24002279147872 6559.9052482876  
! Port Impedance  372.980923690736 0.505531124189817 372.987450695808 0.5057042214215  

503.125          1.985767724768E-005 -115.192428485041 0.81157162306994 142.703501133151 0.811571623070766 142.703501133155 1.36509206564572E-005 -139.665890593808 
! Gamma  !      8.22135400706904 6580.91510554304 8.22129156872536 6580.92211084912 
! Port Impedance  372.251829653344 0.502344198715634 372.258357088684 0.502516142158228 

503.75           1.97343331649875E-005 -114.560487528598 0.811958621482721 112.177170440106 0.811958621483665 112.17717044011  1.36538912394639E-005 158.236591464621 
! Gamma  !      8.20280220500993 6601.89108425298 8.20273991945914 6601.89806720907 
! Port Impedance  371.529678861445 0.499204445285692 371.536206652594 0.499375240974759 

504.375          1.96098964357639E-005 -113.927846765471 0.812341645347509 81.7097756477895 0.812341645348566 81.7097756477948 1.36260089311218E-005 96.2370930369271 
! Gamma  !      8.18442743340776 6622.82654523437 8.18436529870111 6622.83350602456 
! Port Impedance  370.814370199138 0.496110944287307 370.820898273874 0.49628059819243 

505              1.94843530884018E-005 -113.294409690839 0.812720766748443 51.3007612347515 0.812720766749608 51.3007612347573 1.35693283832017E-005 34.3670172034611 
! Gamma  !      8.16622719715086 6643.72187150208 8.16616521137343 6643.72881030792 
! Port Impedance  370.10580455931  0.493062799119947 370.112332847579 0.493231317145524 

505.625          1.935768971144E-005 -112.660077689852 0.81309605612342 20.9495796498748 0.813096056124688 20.949579649881  1.34881853306137E-005 -27.3496685409659 
! Gamma  !      8.14819904977878 6664.57744053799 8.14813721104872 6664.58435753853 
! Port Impedance  369.403884792957 0.490059135494528 369.410413226809 0.490226523480555 

506.25           1.92298934667478E-005 -112.024749884598 0.813467582299089 -9.34430884345672 0.813467582300457 -9.34430884345021 1.3388000218343E-005 -88.8981360242262 
! Gamma  !      8.13034059226984 6685.39362439999 8.13027889873756 6685.40051977183 
! Port Impedance  368.708515660053 0.487099100757809 368.715044173577 0.487265364480662 

506.875          1.91009521027748E-005 -111.388322973587 0.813835412525167 -39.5814363193017 0.813835412526628 -39.5814363192949 1.32742302506158E-005 -150.272107056484 
! Gamma  !      8.1126494718652  6706.17078982829 8.11258792171273 6706.17766374563 
! Port Impedance  368.019603781913 0.484181863240839 368.026132311177 0.484347008414048 

507.5            1.89708539678958E-005 -110.750691063272 0.814199612508082 -69.7623273373866 0.814199612509631 -69.7623273373796 1.31516860449301E-005 148.528037740154 
! Gamma  !      8.09512338092859 6726.90929834906 8.09506197236876 6726.91615098374 
! Port Impedance  367.337057594997 0.481306611630487 367.343586077989 0.481470643905508 

508.125          1.88395880238876E-005 -110.111745491036 0.814560246443971 -99.8874990876255 0.814560246445604 -99.8874990876183 1.30242222230511E-005 87.4974923745351 
! Gamma  !      8.07776005583997 6747.60950637549 8.07769878711579 6747.61633789705 
! Port Impedance  366.660787306106 0.478472554363111 366.667315682675 0.478635479330085 

508.75           1.87071438595734E-005 -109.471374639097 0.814917377051036 -129.957461531124 0.814917377052749 -129.957461531116 1.28947008009235E-005 26.6289946656209 
! Gamma  !      8.06055727592237 6768.27176530644 8.06049614530631 6768.27857588215 
! Port Impedance  365.990704848909 0.475678919039465 365.997233060714 0.475840742227979 

509.375          1.85735117046745E-005 -108.829463738663 0.815271065601276 -159.972717537726 0.815271065603064 -159.972717537718 1.27651066177583E-005 -34.0857111018655 
! Gamma  !      8.04351286240038 6788.89642162256 8.04345186819375 6788.90321141745 
! Port Impedance  365.326723841782 0.472924951860001 365.333251832232 0.473085678739837 

510              1.84386824439134E-005 -108.185894663684 0.815621371951605 170.066236979745 0.815621371953464 170.066236979752 1.26367212921887E-005 -94.6549227308593 
! Gamma  !      8.02662467738945 6809.48381698016 8.02656381792172 6809.4905861571  
! Port Impedance  364.668759546873 0.470209917079739 364.675287261081 0.470369553061618 

510.625          1.83026476314138E-005 -107.540545713444 0.815968354574373 140.158912934512 0.815968354576298 140.15891293452  1.25102994830613E-005 -155.086437963541 
! Gamma  !      8.00989062291477 6830.03428830276 8.00982989654297 6830.04103702246 
! Port Impedance  364.016728830389 0.467533096481936 364.023256215121 0.467691646918255 

511.25           1.81653995054467E-005 -106.893291383221 0.816312070587294 110.304827938005 0.816312070589282 110.304827938012 1.23862209972768E-005 144.612702165441 
! Gamma  !      7.99330863995876 6850.54816787047 7.9932480450669  6850.55489629154 
! Port Impedance  363.37055012404  0.464893788869798 363.377077127665 0.465051259055362 

511.875          1.80269310035776E-005 -106.244002122131 0.816652575782803 80.5035061750518 0.81665257578485 80.5035061750592 1.22646107690666E-005 84.43629071011   
! Gamma  !      7.97687670753629 6871.02578340716 7.97681624253472 6871.03249168616 
! Port Impedance  362.730143387604 0.462291309575539 362.736669960046 0.462447704748281 

512.5            1.78872357782721E-005 -105.592544077253 0.816989924656849 50.7544782820611 0.816989924658951 50.7544782820685 1.21454281413872E-005 24.3789305205113 
! Gamma  !      7.96059284179645 6891.46745816565 7.96053250512133 6891.47414645709 
! Port Impedance  362.09543007258  0.459724989986097 362.101956165278 0.459880315327793 

513.125          1.77463082130219E-005 -104.938778823018 0.817324170437127 21.0572812280629 0.81732417043928 21.0572812280702 1.20285305897413E-005 -35.5640405911286 
! Gamma  !      7.94445509515023 6911.87351101078 7.94439488526296 6911.88017946719 
! Port Impedance  361.46633308689  0.457194177084857 361.472858652749 0.457348437721836 

513.75           1.76041434390599E-005 -104.282563074787 0.817655365110781 -8.58854180145232 0.817655365112981 -8.58854180144522 1.1913717731564E-005 -95.3966441513719 
! Gamma  !      7.92846155542307 6932.24425650059 7.92840147080974 6932.25090527255 
! Port Impedance  360.842776760591 0.454698233008771 360.849301753942 0.454851434012614 

514.375          1.74607373527366E-005 -103.623748385447 0.817983559451554 -38.1834415179846 0.817983559453798 -38.1834415179776 1.18007608460594E-005 -155.122357353156 
! Gamma  !      7.91261034503146 6952.58000496555 7.91255038420235 6952.5866342017  
! Port Impedance  360.224686812564 0.452236534620267 360.231211189122 0.452388681008501 

515              1.73160866336386E-005 -102.962180823763 0.818308803046445 -67.7278626408222 0.81830880304873 -67.7278626408154 1.16894220950636E-005 145.255797434671 
! Gamma  !      7.89689962018288 6972.88106258595 7.89683978167193 6972.88767243308 
! Port Impedance  359.611990318155 0.449808473093397 359.618514034981 0.449959569830177 

515.625          1.71701887635326E-005 -102.297700633111 0.818631144321827 -97.2222440053202 0.81863114432415 -97.2222440053136 1.15794666053253E-005 85.7351737275935 
! Gamma  !      7.8813275700982  6993.14773146754 7.88126785246249 6993.15432207057 
! Port Impedance  359.004615677723 0.447413453513657 359.011138693182 0.447563505510446 

516.25           1.70230420462304E-005 -101.630141869123 0.818950630569086 -126.667018668626 0.818950630571442 -126.66701866862 1.1470669704644E-005 26.3134334750006 
! Gamma  !      7.86589241625587 7013.38030971534 7.86583281807517 7013.38688121736 
! Port Impedance  358.402492586074 0.445050894490988 358.409014859803 0.445199906607225 

516.875          1.68746456284751E-005 -100.959332014632 0.819267307969748 -156.062614013038 0.819267307972134 -156.062614013031 1.13628209311686E-005 -33.0115094341748 
! Gamma  !      7.85059241165708 7033.57909150579 7.85053293153335 7033.58564404812 
! Port Impedance  357.805552002756 0.442720227785433 357.812073495621 0.442868204829192 

517.5            1.6724999521958E-005 -100.285091570198 0.819581221620139 174.590548153008 0.819581221622553 174.590548153013 1.12557259377493E-005 -92.2415358923994 
! Gamma  !      7.83542584011137 7053.74436715726 7.83536647666834 7053.75090087946 
! Port Impedance  357.213726123167 0.440420897944991 357.220246797236 0.440567844673639 

518.125          1.65741046265871E-005 -99.6072336183254 0.819892415555569 145.292051496247 0.819892415558008 145.292051496253 1.11492070568398E-005 -151.37835990993 
! Gamma  !      7.82039101554192 7073.87642319894 7.82033176742456 7073.88293823884 
! Port Impedance  356.626948350477 0.438152361955211 356.63346816898  0.43829828307605 

518.75           1.64219627551355E-005 -98.9255633593529 0.820200932774041 116.0414850621   0.820200932776502 116.041485062105 1.10431030413626E-005 149.576440067329 
! Gamma  !      7.80548628130976 7093.97554243817 7.80542714718394 7093.98203893192 
! Port Impedance  356.045153268315 0.435914088900076 356.051672195613 0.436058989070982 

519.375          1.62685766594138E-005 -98.2398776168095 0.820506815259521 86.8384431803723 0.820506815262001 86.8384431803775 1.09372683240789E-005 90.6213956217689 
! Gamma  !      7.79071000955662 7114.04200402626 7.79065098810862 7114.04848210832 
! Port Impedance  355.468276614208 0.433705559633778 355.474794615762 0.43384944346383 

520              1.61139500581192E-005 -97.5499643098575 0.820810104004747 57.6825253730354 0.820810104007243 57.6825253730403 1.08315720198498E-005 31.7551275399815 
! Gamma  !      7.77606060056547 7134.07608352279 7.77600169050158 7134.08254332601 
! Port Impedance  354.896255253739 0.431526266462962 354.90277229608  0.431669138513064 

520.625          1.59580876665319E-005 -96.8556018902407 0.821110839033605 28.5733362640775 0.821110839036115 28.5733362640821 1.0725896815191E-005 -27.023671198679 
! Gamma  !      7.76153648213842 7154.07805295855 7.76147768218454 7154.08449461415 
! Port Impedance  354.32902715542  0.429375712839075 354.335543206114 0.429517577622572 

521.25           1.58009952282415E-005 -96.1565587409424 0.821409059423079 -0.489514508679685 0.8214090594256  -0.489514508675371 1.06201378358461E-005 -85.7162493639859 
! Gamma  !      7.7471361089913  7174.04818089702 7.74707741789253 7174.05460453465 
! Port Impedance  353.766531366222 0.427253413060436 353.773046393848 0.427394275043715 

521.875          1.56426795491081E-005 -95.4525925335224 0.821704803324767 -29.5064123798012 0.821704803327297 -29.5064123797972 1.05142015474076E-005 -144.323808953757 
! Gamma  !      7.73285796216447 7193.9867324945  7.73279937868475 7193.99313824224 
! Port Impedance  353.208707987787 0.42515889198368 353.215221961905 0.425298755586774 

522.5            1.54831485336756E-005 -94.7434495408523 0.821998107985997 -58.4777379405875 0.821998107988533 -58.4777379405837 1.04080047205341E-005 157.152485298242 
! Gamma  !      7.71870054844932 7213.89396955893 7.71864207137104 7213.90035754336 
! Port Impedance  352.655498153259 0.423091684744238 352.662011044382 0.423230554341414 

523.125          1.53224112242818E-005 -94.028863901688 0.822289009770523 -87.4038670215893 0.822289009773063 -87.4038670215858 1.03014734770708E-005 98.7114979883286 
! Gamma  !      7.70466239982993 7233.77015060743 7.70460402795357 7233.7765209536  
! Port Impedance  352.106844004735 0.42105133648553 352.113355784306 0.42118921640587 

523.75           1.51604778431295E-005 -93.3085568332318 0.822577544178827 -116.285170773317 0.82257754418137 -116.285170773313 1.01945424236715E-005 40.3521163629425 
! Gamma  !      7.69074207293951 7253.61553092256 7.69068380508327 7253.62188375405 
! Port Impedance  351.562688671323 0.419037402096546 351.569199311687 0.419174296624526 

524.375          1.49973598376098E-005 -92.5822357875052 0.822863745868035 -145.122015745233 0.822863745870577 -145.12201574523 1.00871538734982E-005 -17.9267553651478 
! Gamma  !      7.67693814853109 7273.43036260736 7.67687998353053 7273.4366980463  
! Port Impedance  351.022976247766 0.417049445957538 351.029485722144 0.417185359333591 

525              1.48330699291967E-005 -91.8495935470165 0.823147648671434 -173.914763963045 0.823147648673974 -173.914763963042 9.9792571529951E-006 -76.1262009123184 
! Gamma  !      7.66324923096194 7293.21489463922 7.66319116766971 7293.22121280631 
! Port Impedance  350.487651773634 0.415087041693514 350.494160056102 0.415221978114594 

525.625          1.46676221662658E-005 -91.1103072548322 0.823429285617624 157.336226995686 0.823429285620159 157.336226995688 9.87080798875142E-006 -134.247296199365 
! Gamma  !      7.6496739476916  7312.9693729226  7.64961598497703 7312.97567393713 
! Port Impedance  349.956661213058 0.413149771935276 349.963168278522 0.413283735555408 

526.25           1.45010319812207E-005 -90.3640373737593 0.823708688949293 128.630603927472 0.823708688951822 128.630603927475 9.76176796851655E-006 167.708886856735 
! Gamma  !      7.6362109487927  7332.69404034057 7.63615308554151 7332.70032432046 
! Port Impedance  349.429951434993 0.411237228087718 349.436457259166 0.411370223018544 

526.875          1.43333162523546E-005 -89.6104265689235 0.823985890141629 99.9680179304728 0.823985890144151 99.9680179304747 9.65210407013974E-006 109.741276923399 
! Gamma  !      7.62285890647449 7352.38913680533 7.62280114158848 7352.39540386711 
! Port Impedance  348.907470193988 0.409349010105157 348.913974753368 0.409481040416471 

527.5            1.41644933709124E-005 -88.8490985075652 0.824260919920376 71.3481243335333 0.824260919922887 71.348124333535  9.54178825231309E-006 51.8488001135517 
! Gamma  !      7.60961651461854 7372.05489930756 7.60955884701524 7372.06114956645 
! Port Impedance  348.389166111454 0.40748472627342 348.395669383303 0.407615795993702 

528.125          1.39945833138711E-005 -88.0796565693919 0.824533808279531 42.770582626736  0.82453380828203 42.7705826267375 9.43079710134499E-006 -5.96962294844589 
! Gamma  !      7.5964824883263  7391.69156196484 7.59642491693874 7391.69779553474 
! Port Impedance  347.874988657411 0.405643992998479 347.881490619734 0.405774106115417 

528.75           1.38236077230052E-005 -87.3016824603124 0.824804584498709 14.2350563933975 0.824804584501195 14.2350563933988 9.31911152866816E-006 -63.7150799195796 
! Gamma  !      7.58345556347815 7411.29935606897 7.58339808725451 7411.30557306247 
! Port Impedance  347.364888132702 0.4038264346014  347.371388764229 0.403955595062402 

529.375          1.36515899908644E-005 -86.5147347218315 0.82507327716016 -14.2587867565228 0.825073277162632 -14.2587867565218 9.20671651432501E-006 -121.388669443449 
! Gamma  !      7.57053449630361 7430.87851013234 7.57047711420697 7430.88471066076 
! Port Impedance  346.858815651659 0.402031683119382 346.865314931821 0.402159894832088 

530              1.3478555354355E-005 -85.7183471278263 0.825339914165457 -42.7112752516427 0.825339914167913 -42.7112752516419 9.09360089222951E-006 -178.991503814191 
! Gamma  !      7.55771806296237 7450.42924993328 7.5576607739704  7450.43543410669 
! Port Impedance  346.356723125205 0.400259378112684 346.36322103412  0.400386644945469 

530.625          1.33045309966892E-005 -84.9120269598306 0.825604522751854 -71.1227336230417 0.825604522754291 -71.1227336230411 8.97975717355409E-006 123.475288360667 
! Gamma  !      7.54500505913576 7469.95179856059 7.54494786224046 7469.95796648782 
! Port Impedance  345.858563244388 0.398509166477249 345.865059762838 0.398635492259714 

531.25           1.31295461585441E-005 -84.0952531513656 0.825867129508328 -99.4934825668107 0.825867129510746 -99.4934825668103 8.86518140511701E-006 66.0105594627776 
! Gamma  !      7.53239429962849 7489.446376457   7.53233719383591 7489.45252824567 
! Port Impedance  345.364289464315 0.396780702262812 345.370784573731 0.396906090786274 

531.875          1.29536322593641E-005 -83.2674742912454 0.826127760391302 -127.823839005366 0.8261277603937  -127.823839005366 8.74987306014359E-006 8.61314009857196 
! Gamma  !      7.5198846179802  7508.91320146185 7.51982760231022 7508.91933721838 
! Port Impedance  344.873855988503 0.395073646496322 344.880349670947 0.395198101514294 

532.5            1.2776823029833E-005 -82.4281064751967 0.826386440740064 -156.114116147487 0.826386440742442 -156.114116147487 8.63383495924158E-006 -48.7181637616491 
! Gamma  !      7.50747486608669 7528.35248885286 7.50741793957272 7528.35860868249 
! Port Impedance  344.387217753606 0.393387667010499 344.393709991753 0.393511192239163 

533.125          1.2599154656655E-005 -81.5765309945668 0.826643195291876 175.63537645284  0.82664319529423 175.63537645284  8.51707321986762E-006 -105.984573769008 
! Gamma  !      7.49516391383039 7547.76445138703 7.49510707551915 7547.77055539384 
! Port Impedance  343.904330414524 0.391722438277345 343.910821191649 0.391845037396024 

533.75           1.24206659408986E-005 -80.7120918503752 0.826898048196786 147.42433283876  0.826898048199116 147.42433283876  8.39959723296958E-006 -163.187342332112 
! Gamma  !      7.48295064871995 7567.14929934074 7.48289389767119 7567.15538762767 
! Port Impedance  343.425150329885 0.390077641246456 343.431639629841 0.39019931789807 

534.375          1.22413984712918E-005 -79.8340930805286 0.827151023032149 119.252450594067 0.827151023034455 119.252450594067 8.28141966587458E-006 139.672244070661 
! Gamma  !      7.47083397553854 7586.50724054902 7.47077731082486 7586.5133132179  
! Port Impedance  342.949634547867 0.388452963187971 342.956122355077 0.388573720979492 

535              1.20613968139988E-005 -78.9417958877018 0.827402142816864 91.1194307878106 0.827402142819143 91.1194307878101 8.16255649085621E-006 82.5928613777295 
! Gamma  !      7.45881281600078 7605.83848044407 7.45875623670735 7605.8445375956  
! Port Impedance  342.477740792385 0.386848097539994 342.48422709182  0.386967940042898 

535.625          1.18807087205679E-005 -78.0344155552438 0.827651430025313 63.0249779200291 0.827651430027565 63.0249779200286 8.04302703916284E-006 25.5731442054434 
! Gamma  !      7.4468861084179  7625.14322209295 7.44682961364227 7625.14926382675 
! Port Impedance  342.009427449599 0.385262743760371 342.015912226767 0.385381674511076 

536.25           1.16993853559116E-005 -77.1111181385557 0.827898906601041 34.9687998685284 0.827898906603266 34.9687998685277 7.92285408062591E-006 -31.3883181402627 
! Gamma  !      7.43505280737098 7644.42166623456 7.43499639622281 7644.42769264919 
! Port Impedance  341.544653554758 0.383696607182646 341.55113679569  0.383814629682949 

536.875          1.15174815483698E-005 -76.1710169198029 0.828144593970153 6.95060783674762 0.828144593972349 6.95060783674693 7.80206392929616E-006 -88.292985925107 
! Gamma  !      7.423311883392   7663.67401131589 7.42325555499288 7663.68002250882 
! Port Impedance  341.083378779352 0.382149398876082 341.089860470588 0.382266516593588 

537.5            1.13350560641075E-005 -75.2131686146634 0.82838851305444 -21.0298836973986 0.828388513056606 -21.0298836973993 7.68068657588206E-006 -145.14237354362 
! Gamma  !      7.41166232265253 7682.90045352751 7.41160607613576 7682.9064495952  
! Port Impedance  340.625563418582 0.380620835509614 340.632043547155 0.380737051878158 

538.125          1.11521719083198E-005 -74.2365693212212 0.82863068428425 -48.9729570316677 0.828630684286386 -48.9729570316685 7.55875584808918E-006 158.061945606027 
! Gamma  !      7.4001031266598  7702.10118683843 7.40004696117018 7702.10716787631 
! Port Impedance  340.171168379121 0.379110639219587 340.177646932546 0.379225957639655 

538.75           1.09688966559482E-005 -73.2401502032515 0.828871127611096 -76.8788912886294 0.828871127613201 -76.8788912886302 7.43630960028796E-006 101.318333909284 
! Gamma  !      7.38863331195992 7721.27640303024 7.38857722665356 7721.28236913272 
! Port Impedance  339.72015516717  0.377618537481195 339.726632133434 0.37773296132033 

539.375          1.07853028148585E-005 -72.2227729032339 0.829109862520007 -104.747962463917 0.82910986252208 -104.747962463918 7.31338993426902E-006 44.6250839664678 
! Gamma  !      7.37725190984819 7740.42629173054 7.37719590389229 7740.43224299104 
! Port Impedance  339.272485876798 0.376144262983458 339.278961244342 0.37625779557667 

540              1.06014682246871E-005 -71.1832246847356 0.829346908041632 -132.58044347349 0.829346908043673 -132.58044347349 7.19004345318321E-006 -12.0195873461494 
! Gamma  !      7.36595796608609 7759.55104044582 7.36590203865875 7759.55697695677 
! Port Impedance  338.828123178554 0.374687553507664 338.834596936264 0.374800198157827 

540.625          1.04174764948212E-005 -70.1202133096591 0.829582282764103 -160.376604200046 0.829582282766112 -160.376604200046 7.06632155110654E-006 -68.6175451950776 
! Gamma  !      7.35475054062493 7778.65083459362 7.35469469091499 7778.6567564465  
! Port Impedance  338.387030308344 0.373248151809138 338.393502445542 0.373359911787385 

541.25           1.02334174852417E-005 -69.032361663659 0.829816004844649 171.863288461508 0.829816004846624 171.863288461507 6.94228074101708E-006 -125.170743490344 
! Gamma  !      7.34362870733595 7797.72585753412 7.34357293454277 7797.73176481945 
! Port Impedance  337.949171056578 0.371825805502252 337.955641563005 0.371936684048363 

541.875          1.00493878342008E-005 -67.918202153309 0.830048092020976 144.138970559379 0.830048092022916 144.138970559379 6.81798302431639E-006 178.31876803865  
! Gamma  !      7.33259155374663 7816.7762906011  7.33253585707992 7816.78218340847 
! Port Impedance  337.51450975756  0.370420266948557 337.520978623368 0.370530267271343 

542.5            9.86549153693366E-006 -66.7761709119489 0.830278561622415 116.450181041149 0.830278561624321 116.450181041148 6.69349630536656E-006 121.8488364125   
! Gamma  !      7.32163818078308 7835.80231313231 7.32158255946271 7835.80819155036 
! Port Impedance  337.083011279125 0.369031293147958 337.089478494868 0.369140418425637 

543.125          9.68184057978045E-006 -65.6046018683249 0.830507430580842 88.7966617107562 0.830507430582713 88.7966617107554 6.56889485483308E-006 65.4171976533004 
! Gamma  !      7.31076770251836 7854.80410249927 7.31071215577421 7854.80996661576 
! Port Impedance  336.654641012524 0.367658645632821 336.661106569142 0.36776689901339 

543.75           9.49855563420625E-006 -64.4017207540242 0.830734715441372 61.178157186376  0.830734715443209 61.1781571863753 6.44425982590786E-006 9.02146877841729 
! Gamma  !      7.29997924592657 7873.78183413651 7.29992377299836 7873.7876840383  
! Port Impedance  336.229364862526 0.366302090364927 336.235828751343 0.366409474966531 

544.375          9.31576681521388E-006 -63.1656391533959 0.830960432372833 33.5944148590182 0.830960432374634 33.5944148590176 6.31967982771223E-006 -47.3408603744632 
! Gamma  !      7.28927195064249 7892.73568157027 7.2892165507796  7892.74151734332 
! Port Impedance  335.807149237766 0.364961397635195 335.813611450472 0.365067916546485 

545              9.13361450850608E-006 -61.8943487343548 0.831184597178018 6.04518485194334 0.831184597179782 6.04518485194276 6.19525156031482E-006 -103.672435363565 
! Gamma  !      7.27864496872676 7911.6658164466  7.27858964118804 7911.67163817599 
! Port Impedance  335.387961041294 0.363636341966063 335.394421569942 0.363741998246556 

545.625          8.95225027040978E-006 -60.5857158416419 0.831407225303731 -21.4697800192181 0.831407225305459 -21.4697800192185 6.07108051579921E-006 -159.976045224911 
! Gamma  !      7.2680974644362  7930.57240855902 7.26804220848987 7930.578216329   
! Port Impedance  334.971767661356 0.362326702016477 334.978226498346 0.362431498696906 

546.25           8.77183780395381E-006 -59.2374766873671 0.831628331850623 -48.9507242855345 0.831628331852315 -48.9507242855349 5.94728174962287E-006 143.74536981771  
! Gamma  !      7.25762861399952 7949.45562587559 7.25757342892298 7949.46141976954 
! Port Impedance  334.558536962367 0.361032260489385 334.564994100442 0.361136200572043 

546.875          8.59255401349853E-006 -57.8472334387337 0.831847931582814 -76.3978898632191 0.831847931584469 -76.3978898632193 5.82398072604456E-006 87.4887113289848 
! Gamma  !      7.24723760539784 7968.31563456556 7.24718249047751 7968.32141466602 
! Port Impedance  334.148237276101 0.35975280404167 334.154692708338 0.359855890500754 

547.5            8.41459013883289E-006 -56.4124515815777 0.83206603893732 -103.811516091298 0.832066038938939 -103.811516091298 5.70131424056045E-006 31.2507167355793 
! Gamma  !      7.23692363815026 7987.15259902541 7.23686859268145 7987.15836541412 
! Port Impedance  333.740837393074 0.358488123196443 333.747291112872 0.358590358978391 

548.125          8.23815296753829E-006 -54.9304590324795 0.832282668033281 -131.191839768627 0.832282668034863 -131.191839768627 5.57943142095044E-006 -24.9720449743261 
! Gamma  !      7.2266859231041  8005.96668190454 7.22663094639084 8005.97243466242 
! Port Impedance  333.336306554114 0.357238012257634 333.342758555188 0.357339400281455 

548.75           8.06346612149219E-006 -53.3984475831909 0.832497832680987 -158.539095190224 0.832497832682532 -158.539095190223 5.45849480653255E-006 -81.1831752527606 
! Gamma  !      7.21652368222983 8024.75804413041 7.21646877358476 8024.76378333757 
! Port Impedance  332.934614442128 0.356002269226801 332.941064718502 0.356102812384403 

549.375          7.89077140943939E-006 -51.8134773897838 0.83271154639072 174.146485817054 0.832711546392229 174.146485817054 5.33868150235073E-006 -137.386444850339 
! Gamma  !      7.2064361484205  8043.52684493322 7.20638130716469 8043.53257066898 
! Port Impedance  332.535731174046 0.354780695722095 332.542179720041 0.354880396878609 

550              7.72033023235473E-006 -50.1724853649262 0.832923822381403 146.864673859448 0.832923822382874 146.864673859448 5.22018440103656E-006 166.414211515551 
! Gamma  !      7.19642256529557 8062.27324187019 7.19636779075843 8062.2789542131  
! Port Impedance  332.139627292943 0.353573096899323 332.146074103172 0.353671958893416 

550.625          7.55242502158983E-006 -48.4722984928197 0.833134673589062 119.615241941938 0.833134673590496 119.615241941939 5.10321345969832E-006 110.214705962235 
! Gamma  !      7.18648218700909 8080.99739084935 7.18642747852817 8081.0030898772  
! Port Impedance  331.746273760336 0.35237928137503 331.752718829698 0.352477307019224 

551.25           7.38736068125377E-006 -46.7096532575139 0.833344112675106 92.3979654343979 0.833344112676504 92.3979654343986 4.98799701207521E-006 54.0108152511804 
! Gamma  !      7.1766142780619  8099.69944615295 7.17655963498283 8099.70513194274 
! Port Impedance  331.35564194865  0.351199061151565 331.36208527232  0.351296253232543 

551.875          7.22546599565107E-006 -44.8812225472856 0.833552152034435 65.2126220384363 0.833552152035795 65.2126220384372 4.87478308700115E-006 -2.20179257839309 
! Gamma  !      7.16681811311815 8118.37956046036 7.16676353479445 8118.38523308838 
! Port Impedance  330.967703633848 0.350032251544045 330.974145207268 0.350128612822956 

552.5            7.06709494966013E-006 -42.9836515555605 0.833758803803361 38.0589917547777 0.833758803804685 38.0589917547789 4.76384069260801E-006 -58.4275206572678 
! Gamma  !      7.15709297682549 8137.03788487072 7.15703846261848 8137.0435444125  
! Port Impedance  330.582430988217 0.348878671109187 330.588870807095 0.348974204321948 

553.125          6.91262789456271E-006 -41.0136043198668 0.83396407986736 10.9368568512347 0.833964079868647 10.936856851236  4.65546101138028E-006 -114.670792467969 
! Gamma  !      7.14743816363942 8155.67456892499 7.14738371291808 8155.68021545534 
! Port Impedance  330.199796573318 0.347738141575931 330.206234633616 0.34783284943352 
