! Touchstone file exported from HFSS 2018.2.0
!
# GHZ S MA R 50.000000
! Terminal data exported
! Port[1] = 1_T1
! Port[2] = 1_T2
! Port[3] = 2_T1
! Port[4] = 2_T2
0                0.00138253040663261 0                0.00110435728851677 0                0.998622309567736 0                0.00110314149934942 180              
                0.0011043573191738 0                0.00138714766035619 0                0.0011037363861538 180              0.998622334236757 0                
                0.998622309529765 0                0.00110373635313832 180              0.00138588557374697 0                0.00110235405442294 0                
                0.00110314153245261 180              0.998622334216748 0                0.00110235409329984 0                0.00138105932661126 0                
! Port Impedance51 1                0                0                0                0                0                0                
!               0                0               52 2                0                0                0                0                
!               0                0                0                0                53 3                0                0                
!               0                0                0                0                0                0                54 4 
1                0.00138253040663261 0                0.00110435728851677 0                0.998622309567736 0                0.00110314149934942 180              
                0.0011043573191738 0                0.00138714766035619 0                0.0011037363861538 180              0.998622334236757 0                
                0.998622309529765 0                0.00110373635313832 180              0.00138588557374697 0                0.00110235405442294 0                
                0.00110314153245261 180              0.998622334216748 0                0.00110235409329984 0                0.00138105932661126 0                
! Port Impedance61 11                0                0                0                0                0                0                
!               0                0                62 12                0                0                0                0                
!               0                0                0                0                63 13                0                0                
!               0                0                0                0                0                0                64 14 