! Touchstone file exported from HFSS 2018.2.0
!
# GHZ S MA R 50.000000
! Modal data exported
! Port[1] = 1:1
! Port[2] = 2:1
0                0.00697931993072132 180              0.992314774773583 180              0.992314774781889 180              0.00617546529998947 180              
! Gamma         !               0.00653730315138823 0                0.00654089320037521 0                
! Port Impedance51               1                52               2     
1                0.00697931993072132 180              0.992314774773583 180              0.992314774781889 180              0.00617546529998947 180              
! Gamma         !               0.00653730315138823 0                0.00654089320037521 0                
! Port Impedance61               11                62               12      